ITEM: TIMESTEP
0
ITEM: NUMBER OF ATOMS
7168
ITEM: BOX BOUNDS pp pp pp
0.0 69.456
0.0 34.728
0.0 34.728
ITEM: ATOMS id mol type x y z
1 1 4 10.0534232224 9.1533690746 8.8731646026
2 1 5 9.4525327019 8.0377586994 9.5462131326
3 1 3 8.0978146791 7.8078317752 8.8933171546
4 1 3 7.759060243 9.1409967949 8.269771932
5 1 5 9.1142978783 9.7660585237 7.9780202155
6 2 4 5.7953343243 4.196859449 13.468413919
7 2 5 5.0656519332 3.1930089087 12.7465600336
8 2 3 3.7257759163 3.8066667257 12.3685859322
9 2 3 3.5390963078 4.9250159585 13.3664350545
10 2 5 4.9574613381 5.3299799173 13.7364992201
11 3 4 14.4904930644 4.0261629614 4.554548318
12 3 5 13.6043596752 3.2390182605 3.7447832407
13 3 3 12.2917773202 4.0026592609 3.6547589388
14 3 3 12.3031291471 4.8928739259 4.8746334038
15 3 5 13.7818955861 5.1235575654 5.1482220264
16 4 4 5.6958144043 13.5171480839 4.3302203669
17 4 5 5.1910011236 12.4672636322 3.4925530612
18 4 3 3.6795445691 12.459780602 3.6624921914
19 4 3 3.4586665966 13.1097423729 5.00788221
20 4 5 4.655483409 14.0337656649 5.1720855743
21 5 4 13.803012818 12.8886032624 11.6186316777
22 5 5 12.6424315385 12.1098494175 11.95009456
23 5 3 12.0620310009 12.7015167255 13.2269841245
24 5 3 13.2176001839 13.4508711811 13.8466649519
25 5 5 14.0796021469 13.8400787169 12.6563163143
26 6 4 1.4723110349 0.2361599502 9.077531674
27 6 5 0.6888882925 33.8352811647 9.4916395961
28 6 3 68.8666121515 33.8597064213 8.6671683536
29 6 3 68.7257013587 0.577281251 8.2531362273
30 6 5 0.7005155701 1.0934854519 8.2219905014
31 7 4 10.0091471403 34.3664540407 34.15644325
32 7 5 9.3740559096 33.6911233797 0.5243861079
33 7 3 7.9579976749 34.2385437124 0.6214641563
34 7 3 8.0372820608 0.8553935983 34.6668501821
35 7 5 9.1698856907 0.6932692234 33.6643392721
36 8 4 1.4155112775 9.1067569578 0.1154184113
37 8 5 0.8733685508 7.8460213802 0.5331279392
38 8 3 68.9132992651 7.773853043 34.711200401
39 8 3 68.5230348086 9.2199164137 34.5188314448
40 8 5 0.3889828221 9.9303485769 34.2724254042
41 9 1 5.8629656713 5.9758158563 6.0233160444
42 9 2 5.7288366508 6.8906353356 5.7700787798
43 9 2 6.7790202557 5.797619565 5.8038839448
44 10 1 5.257169149 5.3872416916 8.6870455293
45 10 2 5.4728157548 5.5821174786 7.7734862446
46 10 2 6.0625871553 5.0147680451 9.0497234851
47 11 1 7.6322433189 4.2346238407 9.6457430081
48 11 2 7.9605644106 4.6375829688 10.451310293
49 11 2 7.446264158 3.3264160562 9.8900455361
50 12 1 9.6569339918 4.2117487254 7.6933335238
51 12 2 8.9583828171 4.2287795738 8.3496455302
52 12 2 9.2696576919 4.6244215097 6.9196018473
53 13 1 8.5069926597 5.3339478234 5.3825971533
54 13 2 8.526576967 4.6747666134 4.6868375309
55 13 2 8.9273320461 6.1038736125 4.9959167562
56 14 1 4.1879238207 7.7777211635 9.6984569456
57 14 2 4.5681666063 6.9557280731 9.3842070495
58 14 2 3.2913151551 7.5476742625 9.9480009248
59 15 1 4.1487233977 9.6857331892 7.6175500346
60 15 2 4.1779095766 9.0473735248 8.3321186397
61 15 2 4.5646131825 10.4701689253 7.9791054053
62 16 1 5.3474976225 8.6304506249 5.2988053265
63 16 2 4.941571859 9.0250196316 6.0724260525
64 16 2 4.6571526817 8.6407488412 4.6336876146
65 17 1 7.7286822238 9.6872621625 4.2516259922
66 17 2 6.9105450316 9.3591979436 4.6283885622
67 17 2 7.5068554657 9.8991374964 3.3433410053
68 18 1 9.6298300493 7.61890709 4.2091686876
69 18 2 8.9967266709 8.3381984665 4.2376650173
70 18 2 10.4252031892 7.9833258673 4.6011622172
71 19 1 11.3783470319 11.3590347418 5.8174538112
72 19 2 11.6028733585 11.5400551322 6.7318477966
73 19 2 11.9433429479 11.9449544343 5.3108952816
74 20 1 12.0238734669 11.9343437037 8.4516453084
75 20 2 11.218161962 12.190176207 8.9035219313
76 20 2 12.2916102491 11.1198541673 8.880571872
77 21 1 9.6776045977 12.9637103662 9.6442399292
78 21 2 8.9894681271 13.020442396 8.9793326586
79 21 2 9.8956388379 13.8759497581 9.8427085958
80 22 1 7.6338350331 13.1116573775 7.6892320116
81 22 2 7.9552559602 12.7612079126 6.8568140464
82 22 2 7.4220759977 14.0270181641 7.4986374022
83 23 1 8.7397208568 12.0850391694 5.3331503037
84 23 2 9.6555421673 11.8459106321 5.4851744615
85 23 2 8.3434025094 11.294634404 4.9630653366
86 24 1 13.1189053758 9.6036932881 9.6001962219
87 24 2 12.6385557105 9.2381930855 10.3447522831
88 24 2 12.9969684861 8.9628495495 8.8978472392
89 25 1 13.0555081092 7.6472018619 7.5755747819
90 25 2 13.9852754216 7.4404262304 7.4671419735
91 25 2 12.6773396521 6.8566522964 7.96398669
92 26 1 11.994899432 8.7153262656 5.2299192572
93 26 2 11.7780492097 9.6236364937 5.4470742314
94 26 2 12.3102068251 8.3401440478 6.0538952729
95 27 1 5.9836408556 11.3526562991 11.3443477392
96 27 2 5.7803341446 10.4479718928 11.5876962106
97 27 2 5.4332605512 11.8858548582 11.9205011272
98 28 1 5.2733897775 12.0055619937 8.720098333
99 28 2 6.0729731977 12.3592620017 8.3269082061
100 28 2 5.5252477885 11.7835597475 9.618076157
101 29 1 8.61928972 11.9545814761 12.0273021347
102 29 2 9.0110027481 12.2683915709 11.2105033559
103 29 2 7.714639037 11.740586957 11.7930662848
104 30 1 5.3875613207 8.7171461373 12.0425269542
105 30 2 4.6785287354 8.7655609003 12.6859228208
106 30 2 4.9727546411 8.3630735621 11.2541057421
107 31 1 7.773368185 7.7251635375 13.151513935
108 31 2 8.0195522317 6.9080344574 12.7146418211
109 31 2 6.9633137736 7.9957573116 12.7161622996
110 32 1 9.790551412 9.6536809541 13.1118134976
111 32 2 9.0892662296 8.999990428 13.1090346691
112 32 2 9.4033155345 10.4231532069 12.6911160256
113 33 1 11.4042876047 5.8271266007 11.3668569684
114 33 2 11.6347132834 6.7361646425 11.5661457857
115 33 2 11.9746166546 5.3050017066 11.9336795931
116 34 1 12.0466451732 5.2802290624 8.7082803336
117 34 2 11.8336892115 5.4717007991 9.6231987875
118 34 2 11.2301470848 4.9414273354 8.3375147729
119 35 1 8.7045444483 5.3799989356 11.9513600459
120 35 2 9.6424059585 5.4954239669 11.7899458157
121 35 2 8.6586074047 4.696943907 12.6225402913
122 36 1 12.04369007 8.4656667618 11.9611383524
123 36 2 11.2757847787 8.8990354013 12.3372541637
124 36 2 12.699763514 8.4906548841 12.6596172527
125 37 1 15.7950846738 15.8179227929 15.8119123621
126 37 2 14.870694173 16.0264201767 15.9578355179
127 37 2 15.9540692387 16.0580121229 14.8975376622
128 38 1 16.3629447935 16.4420816627 13.1461246031
129 38 2 16.7380525658 15.6551845835 12.7471652073
130 38 2 17.0679092115 17.090653668 13.1068628121
131 39 1 13.1093672324 16.3288001786 16.331769728
132 39 2 12.625562328 16.6447559935 15.5669159091
133 39 2 12.9759153143 17.0060799043 16.9968634691
134 40 1 16.3079618642 13.151459815 16.4067131287
135 40 2 16.982038262 13.1756637406 17.0879688608
136 40 2 16.1272401458 14.0732462735 16.2147822926
137 41 1 10.2815277754 10.2918075332 15.777861523
138 41 2 10.1360820294 10.0700488562 14.8565711408
139 41 2 11.2029451849 10.0779538446 15.9338404661
140 42 1 13.9707368096 8.4987271164 13.9979807821
141 42 2 13.6668437666 8.9563346344 14.7836141936
142 42 2 14.7590178126 8.9751721641 13.7322136826
143 43 1 12.9376224504 9.6697668861 16.3188676771
144 43 2 13.3244042068 10.4518027252 16.7161182121
145 43 2 12.9742954281 9.0061935821 17.009776623
146 44 1 8.5443270024 14.0089514835 13.9699604976
147 44 2 8.9573160283 13.6554412248 14.7595740873
148 44 2 8.595843898 13.2954164333 13.3319107613
149 45 1 9.6279891127 12.9434796236 16.3332075869
150 45 2 10.4356066937 13.3443454188 16.6588455276
151 45 2 9.8688731662 12.0342271276 16.1480689964
152 46 1 15.729084721 10.2235177433 10.3940104196
153 46 2 14.8183003656 10.0625401642 10.1416743033
154 46 2 15.8688284561 11.1537199317 10.2087462683
155 47 1 16.3124612651 9.7253016681 13.0712980522
156 47 2 16.0913718512 9.9077249925 12.1563616085
157 47 2 16.6316856112 10.5622386226 13.4126431053
158 48 1 16.3754865377 12.8569510679 9.7222426989
159 48 2 15.5231431551 13.219035673 9.4742445403
160 48 2 16.5936077753 13.2978958498 10.5448425206
161 49 1 14.0334145963 13.9173257077 8.5502018542
162 49 2 13.3622491242 13.2355505102 8.6108488664
163 49 2 13.6604720169 14.6640462792 9.0214683362
164 50 1 10.2894039697 15.6067212452 10.2840266737
165 50 2 11.1988180477 15.8212352192 10.0694730085
166 50 2 9.76806287 16.2012681733 9.7419561502
167 51 1 9.6796546527 16.3393079433 12.9021756506
168 51 2 9.3243979988 15.5477227308 13.3097669221
169 51 2 9.8897179034 16.0740282652 12.0052078025
170 52 1 12.9245005393 16.2705351699 9.659266011
171 52 2 12.9109561125 16.9720190379 9.0060868783
172 52 2 13.3452916233 16.6638917751 10.4254733584
173 53 1 7.06963251 7.0950091915 15.7736348023
174 53 2 7.3225076349 7.3097336841 14.8741956744
175 53 2 7.6343083788 7.644695459 16.3196297683
176 54 1 3.3659882021 8.9045516551 13.9895828424
177 54 2 3.6418318868 8.4964862564 14.8121150764
178 54 2 2.5375124587 8.4733590191 13.7734676994
179 55 1 4.4174010442 7.7720576539 16.3181627707
180 55 2 4.0151236668 6.9774221983 16.6725048712
181 55 2 5.330858217 7.5285100544 16.1592432686
182 56 1 8.8175802956 3.3689438775 13.9231705346
183 56 2 8.2947416114 3.7163299652 14.6476222476
184 56 2 8.324047558 2.6074597751 13.614384581
185 57 1 7.6790660762 4.4210728307 16.3142978438
186 57 2 6.8499651082 4.0342475323 16.6002204649
187 57 2 7.456237256 5.3251534258 16.0863433234
188 58 1 1.5781636505 1.5620785707 15.7302568025
189 58 2 1.4088003613 2.4721620131 15.9795212591
190 58 2 2.4951105564 1.4145160552 15.9679809289
191 59 1 1.0382306156 0.9736388574 13.0616092752
192 59 2 0.680733003 1.7789438274 12.6839344951
193 59 2 1.2274112921 1.1995404999 13.9738966235
194 60 1 4.2320551449 1.0019969831 16.4051179727
195 60 2 4.6506979611 0.611891005 15.6360149453
196 60 2 4.2743015802 0.317351314 17.074763676
197 61 1 0.9491030201 4.1921619393 16.4264521361
198 61 2 1.7520889985 4.64814204 16.6839950554
199 61 2 0.6736506702 4.6284278553 15.6184781426
200 62 1 7.1156125397 1.5853395819 10.3360621108
201 62 2 7.6527346204 1.01624389 9.7821795451
202 62 2 6.2125957894 1.375864151 10.091399147
203 63 1 7.6780354843 0.9361436235 12.9913422267
204 63 2 8.3758691246 0.2798967025 12.9543140902
205 63 2 7.4943577644 1.143492396 12.0735384937
206 64 1 4.4710445563 1.0344506588 9.668137714
207 64 2 3.9395401038 1.7710966272 9.362068952
208 64 2 3.9714337883 0.6646405522 10.3978462505
209 65 1 3.2700222178 3.4146852027 8.6896963674
210 65 2 3.9620212067 4.0780314524 8.6842716882
211 65 2 3.1072778948 3.2297735071 7.7632220696
212 66 1 1.5762433267 7.1586707068 10.4638834451
213 66 2 1.366894602 6.2496689791 10.2426455629
214 66 2 1.0189874895 7.6812812679 9.8845970583
215 67 1 0.9614613708 7.7495625123 13.1282300873
216 67 2 1.1513291691 7.5682440559 12.206162522
217 67 2 0.2784669852 8.4218301998 13.1051289026
218 68 1 0.9529091279 4.5220770908 9.7865623616
219 68 2 1.7377532663 4.1089675734 9.4225707093
220 68 2 0.3114306043 4.4877544362 9.0749667711
221 69 1 7.0403899766 15.7934994786 7.1713894493
222 69 2 6.123498847 16.0225578063 7.3321549897
223 69 2 7.1777609845 15.9895852538 6.2430676018
224 70 1 7.5417572168 16.4225483449 4.4897654281
225 70 2 8.2740626197 17.0363848606 4.4139211984
226 70 2 7.8689449572 15.6091691005 4.1019279488
227 71 1 4.3634268969 16.4285082606 7.6835722609
228 71 2 3.9398221512 15.6642570528 8.077636116
229 71 2 4.3131126102 17.1062841808 8.3597910729
230 72 1 8.7542011614 14.1273959541 3.3818779478
231 72 2 8.6472212363 13.4647457508 4.066300814
232 72 2 8.2997491621 13.762234477 2.6210216363
233 73 1 3.3490863785 14.047239877 8.8136040344
234 73 2 2.5553291162 13.6662820846 8.4343614634
235 73 2 3.9988920788 13.343993756 8.7671536791
236 74 1 1.4741500589 10.265624721 7.0678050485
237 74 2 2.3981075119 10.0999583999 7.2625527584
238 74 2 1.3391280571 11.1840920389 7.3071217831
239 75 1 0.9699715363 9.6579579886 4.3883794785
240 75 2 1.1430939045 9.8742290719 5.3061612588
241 75 2 0.6504625103 10.476392181 4.0049565668
242 76 1 3.3535750147 8.6269293045 3.3206685253
243 76 2 3.1291583455 7.726214454 3.0813765887
244 76 2 2.5297226048 9.0048763247 3.6326778142
245 77 1 1.007886507 12.9218185274 7.7714630019
246 77 2 0.6125866959 13.3264604297 6.9975076019
247 77 2 0.3047268737 12.9122502787 8.4231416195
248 78 1 7.1081075666 10.3144544845 1.6015609525
249 78 2 7.6399672345 9.7445152069 1.0434618654
250 78 2 6.2027921964 10.1020227492 1.3683392229
251 79 1 4.4464640883 9.768528435 0.9658417162
252 79 2 4.3298998781 9.1169575567 0.2724374327
253 79 2 3.966682992 9.4107578221 1.7145838976
254 80 1 7.7042571345 12.9872138396 1.0145862028
255 80 2 8.3647081893 12.9637858297 0.3201787407
256 80 2 7.5258267382 12.0652944283 1.2075738017
257 81 1 1.6386631585 15.7671195615 1.689770513
258 81 2 1.3885316963 15.9750627481 2.5915600727
259 81 2 1.0870681926 16.3361523909 1.1502153385
260 82 1 0.906904527 16.3503469007 4.3227425683
261 82 2 1.6777290342 16.7463700394 4.732699758
262 82 2 0.2469701458 17.0457440005 4.3302143058
263 83 1 4.2856066696 16.3854902519 1.0547322724
264 83 2 3.3806982337 16.1603128309 1.2772138699
265 83 2 4.6662513855 15.5648423542 0.7375955708
266 84 1 0.9259604704 13.1624353774 1.0192720408
267 84 2 1.1853056712 14.0562895303 1.249253785
268 84 2 1.7244473901 12.7630273552 0.670021498
269 85 1 15.7468984376 7.0720058907 7.1426348678
270 85 2 15.9711711875 7.3164720039 6.2432253077
271 85 2 16.2997851766 7.633161754 7.6890917164
272 86 1 16.3104911266 7.7186996599 4.4749661722
273 86 2 16.670868068 6.9279095269 4.0701731006
274 86 2 17.0193317658 8.3616771183 4.4188142434
275 87 1 14.0102839027 8.7794223998 3.2785955347
276 87 2 14.7851133593 8.3864648795 3.6838838351
277 87 2 13.3394656591 8.7483525525 3.9627732738
278 88 1 16.4150705704 4.4320067342 7.7260950331
279 88 2 16.177598492 5.3360552349 7.5130734231
280 88 2 15.5886150774 4.0214178481 7.9856529372
281 89 1 14.0270883802 3.2984557818 8.6402051733
282 89 2 13.3528736786 3.9796186286 8.6612782499
283 89 2 14.2192519993 3.1220739624 9.5627394033
284 90 1 10.1878283432 1.5474054663 7.0101337288
285 90 2 11.0983832892 1.378432722 7.2581063138
286 90 2 10.0394373287 2.4634863361 7.2504828216
287 91 1 9.6163748415 0.961335365 4.3400417695
288 91 2 9.8069479116 1.1684134606 5.2565110633
289 91 2 9.269681827 1.7777349944 3.9764627922
290 92 1 12.8150362766 0.9515773011 7.722403145
291 92 2 13.2564777915 0.6659823897 6.9207490699
292 92 2 13.2782090807 1.7503710897 7.9801760531
293 93 1 8.5305639097 3.3662350133 3.3627941915
294 93 2 8.9147235144 3.7033911337 2.5518133106
295 93 2 7.6250815437 3.1544005019 3.1296812042
296 94 1 15.6994298217 1.5438305045 1.6465977112
297 94 2 15.9244146284 2.4564991427 1.4581596828
298 94 2 16.3009645626 1.0311953796 1.1039567737
299 95 1 16.352490094 1.0136473085 4.3146394496
300 95 2 15.531989944 0.7180191171 4.71244233
301 95 2 16.1189836296 1.2206947005 3.4082229215
302 96 1 13.04757709 0.9959029211 0.9423576905
303 96 2 12.6531399715 0.6336005204 1.7373479392
304 96 2 13.9622183387 1.1569153064 1.1799468335
305 97 1 16.3260384922 4.1977894293 1.0559313491
306 97 2 15.535012505 4.5730525848 0.6655392612
307 97 2 16.9731242515 4.2124731662 0.34884109
308 98 1 10.3269543166 7.0739296697 1.5542689283
309 98 2 10.07102499 6.165249103 1.3873211395
310 98 2 10.0841897247 7.2277094612 2.46885093
311 99 1 12.9814926749 7.6600602878 0.9261923619
312 99 2 12.0719774188 7.4605025425 1.1543396319
313 99 2 13.3616381238 8.0062260092 1.7352871896
314 100 1 9.5951965441 4.4325662725 0.9917994871
315 100 2 10.3670502558 4.0112990694 0.6099988044
316 100 2 8.9419951487 4.4181794269 0.2902001844
317 101 1 11.4622634618 2.6744196247 14.5217707205
318 101 2 11.5812941425 2.8842657587 15.4495721427
319 101 2 10.5524650393 2.913128025 14.3363009869
320 102 1 11.8986522092 3.310184265 17.2114312916
321 102 2 12.6181617647 3.9421442845 17.254534708
322 102 2 12.2595072995 2.5088419789 17.5944735284
323 103 1 12.0823337616 0.0063871418 13.9171634524
324 103 2 11.2541352975 34.3415943449 13.6365541095
325 103 2 11.8519871564 0.9047499596 14.1597617329
326 104 1 2.6620614611 11.5286265826 14.6074783093
327 104 2 2.898507921 10.6130538999 14.4494665436
328 104 2 2.8724171404 11.6750724861 15.5313098095
329 105 1 3.2549015774 12.0833790609 17.2709847937
330 105 2 3.595104483 11.2716465278 17.6510682183
331 105 2 3.986003994 12.7006844435 17.3290358889
332 106 1 0.0109439865 12.1379002084 14.0287210468
333 106 2 69.0987991171 12.4808219618 14.8447037598
334 106 2 0.9247429466 11.9408375924 14.2415987919
335 107 1 14.6435551315 5.8753881289 14.6644422444
336 107 2 14.417175924 6.7800482847 14.4421752988
337 107 2 14.0986624981 5.3417806446 14.0834177747
338 108 1 13.9686081351 5.2223810178 17.2867610654
339 108 2 13.6581780838 6.044079455 17.6706259107
340 108 2 14.1887515382 5.4483227997 16.3814460432
341 109 1 17.3030235459 5.3211937605 14.0654700507
342 109 2 17.6706024631 6.1545044345 13.7663466541
343 109 2 16.3875085846 5.5213488874 14.2677247543
344 110 1 5.9053630495 14.5312937303 14.6960455538
345 110 2 6.8210436193 14.3859296473 14.45207007
346 110 2 5.7451239682 15.4535649468 14.4890874361
347 111 1 5.3083494382 13.9911732307 17.3643514199
348 111 2 5.5222057278 14.1769502501 16.4484603352
349 111 2 6.129901938 13.6741455051 17.7432462642
350 112 1 5.354952815 17.1981309339 14.1042990139
351 112 2 6.1437690134 17.5985081577 13.734783125
352 112 2 4.7142862848 17.2275839264 13.3917458064
353 113 1 2.7663892463 2.8633824658 5.9969547178
354 113 2 1.8538648794 3.0386010072 5.7606407867
355 113 2 2.8923291808 1.9344039943 5.7963530316
356 114 1 0.1322588211 3.4207049681 5.3273926396
357 114 2 69.0919069083 3.7485152982 6.0790928288
358 114 2 69.0638721617 2.6913323235 4.9929589294
359 115 1 3.1844949408 0.1755884925 5.4056463754
360 115 2 3.5641173626 34.5114930517 6.1938408934
361 115 2 3.8946073211 0.1563747596 4.7618729839
362 116 1 2.7630588582 14.6012814356 11.4839877819
363 116 2 2.9802225043 14.4115199036 10.5697156249
364 116 2 3.3415061486 14.0298029554 11.9918549723
365 117 1 0.0684663351 14.10978302 12.0496671407
366 117 2 0.9993370026 14.2465418912 11.8658284384
367 117 2 0.0540594303 13.4229510617 12.7183359814
368 118 1 3.4310966701 17.2637828253 12.0549984988
369 118 2 3.1996410931 16.361449993 11.8287690506
370 118 2 2.6038669092 17.6618930843 12.3308670341
371 119 1 14.6086518113 2.7559349953 11.3131235758
372 119 2 15.5185041176 2.9105089516 11.5725976225
373 119 2 14.4516949609 1.8341878297 11.5249559253
374 120 1 17.2398218401 3.3246585644 12.0718970391
375 120 2 17.6427571086 3.714528269 11.2942617572
376 120 2 17.2768198201 4.016737504 12.7341316279
377 121 1 14.0549666121 0.1006484444 11.936359731
378 121 2 13.3864058004 0.0628564816 12.6224842555
379 121 2 14.8381888699 34.4546310074 12.3433132943
380 122 1 14.5610924829 14.6528559597 5.9243564012
381 122 2 15.4836891832 14.4307909941 5.7882873876
382 122 2 14.3845488432 14.4000730648 6.8322213651
383 123 1 17.2313345844 14.006147044 5.4490677554
384 123 2 17.6164763248 14.8009241096 5.0762084539
385 123 2 17.2761773668 13.3621997152 4.7403368827
386 124 1 13.9668550584 17.3299355759 5.3720158845
387 124 2 13.3051144949 17.3009267367 4.6790778826
388 124 2 14.1612815202 16.4096022562 5.5571623044
389 125 1 5.8909107181 2.7686223915 2.7003531644
390 125 2 5.3482369291 3.3262362452 3.2604576125
391 125 2 5.6545503839 1.8739793529 2.9509407634
392 126 1 5.279774813 3.4051871933 0.0409157501
393 126 2 5.4937971853 3.1773967696 0.9471671162
394 126 2 4.9526490755 2.5890688926 34.3870101373
395 127 1 5.1965957382 0.1703743114 3.45658244
396 127 2 5.9849102859 34.4470717948 3.7632214842
397 127 2 4.9516009067 34.435312397 2.6537759609
398 128 1 2.7297145356 5.9591359197 2.6711708547
399 128 2 1.8287382356 5.7451174874 2.9190747111
400 128 2 3.2723026849 5.4164076306 3.2457934998
401 129 1 3.3090368519 5.39275726 34.7108308226
402 129 2 3.9929224948 4.7209876842 34.722046705
403 129 2 3.1330445388 5.5718047341 0.908043774
404 130 1 0.0657939663 5.4039945342 3.3487176829
405 130 2 0.0159382063 4.7379052516 4.0364713667
406 130 2 69.0669892476 5.0120198469 2.6014735026
407 131 1 14.6649012764 11.4492215103 2.7677903559
408 131 2 14.4350370119 10.5306480362 2.9175591082
409 131 2 14.4236462409 11.6113549705 1.8542568106
410 132 1 13.9846046017 11.9999908722 0.1153662307
411 132 2 13.3184197715 12.6885946276 0.0814956073
412 132 2 14.7618244764 12.3980656921 34.4478397054
413 133 1 17.3019341154 12.0747639538 3.4024785627
414 133 2 16.394481969 11.8613418 3.1787249153
415 133 2 17.6768531971 12.4134462228 2.5878127391
416 134 1 11.4076092951 14.6415458827 2.7087169766
417 134 2 10.5045332468 14.4434012623 2.9623452428
418 134 2 11.9437628682 14.0796417041 3.2708508751
419 135 1 12.0056077452 13.9808413174 0.053688904
420 135 2 12.3059978519 14.7976049009 34.3795232937
421 135 2 11.7909686189 14.2223322629 0.9562498899
422 136 1 12.0190035922 17.291173498 3.3331684953
423 136 2 11.1928339505 17.6639089413 3.6453813733
424 136 2 11.8064887334 16.3809149271 3.1201452654
425 137 1 0.0436946165 0.0132044593 0.0854840612
426 137 2 68.9461785329 34.2072726047 34.2410639632
427 137 2 0.568940837 0.5442740089 34.2124986205
428 138 1 4.3340599698 4.4046587496 4.3168611165
429 138 2 4.8580466693 4.946098014 4.9096039941
430 138 2 3.7919526674 3.8681004521 4.897756333
431 139 1 8.6756860905 8.6847904349 0.0057979852
432 139 2 9.2542970575 9.2256983061 34.1936453688
433 139 2 9.2706042466 8.1416107284 0.5255267691
434 140 1 69.4300806915 8.6552418999 8.7678186594
435 140 2 0.4699197091 9.2503434721 8.2029427265
436 140 2 68.8792911632 9.2321335516 9.2998901026
437 141 1 8.7172566375 34.6866998328 8.7566759005
438 141 2 8.1435351446 34.1603519665 8.1971955773
439 141 2 9.2213348708 0.4974364738 8.144524527
440 142 1 12.9858576074 13.0338937439 4.3119825205
441 142 2 13.5477427588 13.5762457737 4.8681313545
442 142 2 13.596864277 12.5033328788 3.797943643
443 143 1 4.4034497905 12.9467840543 12.9838229704
444 143 2 4.9226811125 13.4877491451 13.5812345127
445 143 2 3.8126319787 12.4552492805 13.556962923
446 144 1 13.0668679283 4.3308853884 12.993917347
447 144 2 12.5247795629 3.7298328316 13.5078383128
448 144 2 13.5853368994 3.7597240899 12.4246110922
449 145 4 27.4174232224 9.1533690746 8.8731646026
450 145 5 26.8165327019 8.0377586994 9.5462131326
451 145 3 25.4618146791 7.8078317752 8.8933171546
452 145 3 25.123060243 9.1409967949 8.269771932
453 145 5 26.4782978783 9.7660585237 7.9780202155
454 146 4 23.1593343243 4.196859449 13.468413919
455 146 5 22.4296519332 3.1930089087 12.7465600336
456 146 3 21.0897759163 3.8066667257 12.3685859322
457 146 3 20.9030963078 4.9250159585 13.3664350545
458 146 5 22.3214613381 5.3299799173 13.7364992201
459 147 4 31.8544930644 4.0261629614 4.554548318
460 147 5 30.9683596752 3.2390182605 3.7447832407
461 147 3 29.6557773202 4.0026592609 3.6547589388
462 147 3 29.6671291471 4.8928739259 4.8746334038
463 147 5 31.1458955861 5.1235575654 5.1482220264
464 148 4 23.0598144043 13.5171480839 4.3302203669
465 148 5 22.5550011236 12.4672636322 3.4925530612
466 148 3 21.0435445691 12.459780602 3.6624921914
467 148 3 20.8226665966 13.1097423729 5.00788221
468 148 5 22.019483409 14.0337656649 5.1720855743
469 149 4 31.167012818 12.8886032624 11.6186316777
470 149 5 30.0064315385 12.1098494175 11.95009456
471 149 3 29.4260310009 12.7015167255 13.2269841245
472 149 3 30.5816001839 13.4508711811 13.8466649519
473 149 5 31.4436021469 13.8400787169 12.6563163143
474 150 4 18.8363110349 0.2361599502 9.077531674
475 150 5 18.0528882925 33.8352811647 9.4916395961
476 150 3 16.7746121515 33.8597064213 8.6671683536
477 150 3 16.6337013587 0.577281251 8.2531362273
478 150 5 18.0645155701 1.0934854519 8.2219905014
479 151 4 27.3731471403 34.3664540407 34.15644325
480 151 5 26.7380559096 33.6911233797 0.5243861079
481 151 3 25.3219976749 34.2385437124 0.6214641563
482 151 3 25.4012820608 0.8553935983 34.6668501821
483 151 5 26.5338856907 0.6932692234 33.6643392721
484 152 4 18.7795112775 9.1067569578 0.1154184113
485 152 5 18.2373685508 7.8460213802 0.5331279392
486 152 3 16.8212992651 7.773853043 34.711200401
487 152 3 16.4310348086 9.2199164137 34.5188314448
488 152 5 17.7529828221 9.9303485769 34.2724254042
489 153 1 23.2269656713 5.9758158563 6.0233160444
490 153 2 23.0928366508 6.8906353356 5.7700787798
491 153 2 24.1430202557 5.797619565 5.8038839448
492 154 1 22.621169149 5.3872416916 8.6870455293
493 154 2 22.8368157548 5.5821174786 7.7734862446
494 154 2 23.4265871553 5.0147680451 9.0497234851
495 155 1 24.9962433189 4.2346238407 9.6457430081
496 155 2 25.3245644106 4.6375829688 10.451310293
497 155 2 24.810264158 3.3264160562 9.8900455361
498 156 1 27.0209339918 4.2117487254 7.6933335238
499 156 2 26.3223828171 4.2287795738 8.3496455302
500 156 2 26.6336576919 4.6244215097 6.9196018473
501 157 1 25.8709926597 5.3339478234 5.3825971533
502 157 2 25.890576967 4.6747666134 4.6868375309
503 157 2 26.2913320461 6.1038736125 4.9959167562
504 158 1 21.5519238207 7.7777211635 9.6984569456
505 158 2 21.9321666063 6.9557280731 9.3842070495
506 158 2 20.6553151551 7.5476742625 9.9480009248
507 159 1 21.5127233977 9.6857331892 7.6175500346
508 159 2 21.5419095766 9.0473735248 8.3321186397
509 159 2 21.9286131825 10.4701689253 7.9791054053
510 160 1 22.7114976225 8.6304506249 5.2988053265
511 160 2 22.305571859 9.0250196316 6.0724260525
512 160 2 22.0211526817 8.6407488412 4.6336876146
513 161 1 25.0926822238 9.6872621625 4.2516259922
514 161 2 24.2745450316 9.3591979436 4.6283885622
515 161 2 24.8708554657 9.8991374964 3.3433410053
516 162 1 26.9938300493 7.61890709 4.2091686876
517 162 2 26.3607266709 8.3381984665 4.2376650173
518 162 2 27.7892031892 7.9833258673 4.6011622172
519 163 1 28.7423470319 11.3590347418 5.8174538112
520 163 2 28.9668733585 11.5400551322 6.7318477966
521 163 2 29.3073429479 11.9449544343 5.3108952816
522 164 1 29.3878734669 11.9343437037 8.4516453084
523 164 2 28.582161962 12.190176207 8.9035219313
524 164 2 29.6556102491 11.1198541673 8.880571872
525 165 1 27.0416045977 12.9637103662 9.6442399292
526 165 2 26.3534681271 13.020442396 8.9793326586
527 165 2 27.2596388379 13.8759497581 9.8427085958
528 166 1 24.9978350331 13.1116573775 7.6892320116
529 166 2 25.3192559602 12.7612079126 6.8568140464
530 166 2 24.7860759977 14.0270181641 7.4986374022
531 167 1 26.1037208568 12.0850391694 5.3331503037
532 167 2 27.0195421673 11.8459106321 5.4851744615
533 167 2 25.7074025094 11.294634404 4.9630653366
534 168 1 30.4829053758 9.6036932881 9.6001962219
535 168 2 30.0025557105 9.2381930855 10.3447522831
536 168 2 30.3609684861 8.9628495495 8.8978472392
537 169 1 30.4195081092 7.6472018619 7.5755747819
538 169 2 31.3492754216 7.4404262304 7.4671419735
539 169 2 30.0413396521 6.8566522964 7.96398669
540 170 1 29.358899432 8.7153262656 5.2299192572
541 170 2 29.1420492097 9.6236364937 5.4470742314
542 170 2 29.6742068251 8.3401440478 6.0538952729
543 171 1 23.3476408556 11.3526562991 11.3443477392
544 171 2 23.1443341446 10.4479718928 11.5876962106
545 171 2 22.7972605512 11.8858548582 11.9205011272
546 172 1 22.6373897775 12.0055619937 8.720098333
547 172 2 23.4369731977 12.3592620017 8.3269082061
548 172 2 22.8892477885 11.7835597475 9.618076157
549 173 1 25.98328972 11.9545814761 12.0273021347
550 173 2 26.3750027481 12.2683915709 11.2105033559
551 173 2 25.078639037 11.740586957 11.7930662848
552 174 1 22.7515613207 8.7171461373 12.0425269542
553 174 2 22.0425287354 8.7655609003 12.6859228208
554 174 2 22.3367546411 8.3630735621 11.2541057421
555 175 1 25.137368185 7.7251635375 13.151513935
556 175 2 25.3835522317 6.9080344574 12.7146418211
557 175 2 24.3273137736 7.9957573116 12.7161622996
558 176 1 27.154551412 9.6536809541 13.1118134976
559 176 2 26.4532662296 8.999990428 13.1090346691
560 176 2 26.7673155345 10.4231532069 12.6911160256
561 177 1 28.7682876047 5.8271266007 11.3668569684
562 177 2 28.9987132834 6.7361646425 11.5661457857
563 177 2 29.3386166546 5.3050017066 11.9336795931
564 178 1 29.4106451732 5.2802290624 8.7082803336
565 178 2 29.1976892115 5.4717007991 9.6231987875
566 178 2 28.5941470848 4.9414273354 8.3375147729
567 179 1 26.0685444483 5.3799989356 11.9513600459
568 179 2 27.0064059585 5.4954239669 11.7899458157
569 179 2 26.0226074047 4.696943907 12.6225402913
570 180 1 29.40769007 8.4656667618 11.9611383524
571 180 2 28.6397847787 8.8990354013 12.3372541637
572 180 2 30.063763514 8.4906548841 12.6596172527
573 181 1 33.1590846738 15.8179227929 15.8119123621
574 181 2 32.234694173 16.0264201767 15.9578355179
575 181 2 33.3180692387 16.0580121229 14.8975376622
576 182 1 33.7269447935 16.4420816627 13.1461246031
577 182 2 34.1020525658 15.6551845835 12.7471652073
578 182 2 34.4319092115 17.090653668 13.1068628121
579 183 1 30.4733672324 16.3288001786 16.331769728
580 183 2 29.989562328 16.6447559935 15.5669159091
581 183 2 30.3399153143 17.0060799043 16.9968634691
582 184 1 33.6719618642 13.151459815 16.4067131287
583 184 2 34.346038262 13.1756637406 17.0879688608
584 184 2 33.4912401458 14.0732462735 16.2147822926
585 185 1 27.6455277754 10.2918075332 15.777861523
586 185 2 27.5000820294 10.0700488562 14.8565711408
587 185 2 28.5669451849 10.0779538446 15.9338404661
588 186 1 31.3347368096 8.4987271164 13.9979807821
589 186 2 31.0308437666 8.9563346344 14.7836141936
590 186 2 32.1230178126 8.9751721641 13.7322136826
591 187 1 30.3016224504 9.6697668861 16.3188676771
592 187 2 30.6884042068 10.4518027252 16.7161182121
593 187 2 30.3382954281 9.0061935821 17.009776623
594 188 1 25.9083270024 14.0089514835 13.9699604976
595 188 2 26.3213160283 13.6554412248 14.7595740873
596 188 2 25.959843898 13.2954164333 13.3319107613
597 189 1 26.9919891127 12.9434796236 16.3332075869
598 189 2 27.7996066937 13.3443454188 16.6588455276
599 189 2 27.2328731662 12.0342271276 16.1480689964
600 190 1 33.093084721 10.2235177433 10.3940104196
601 190 2 32.1823003656 10.0625401642 10.1416743033
602 190 2 33.2328284561 11.1537199317 10.2087462683
603 191 1 33.6764612651 9.7253016681 13.0712980522
604 191 2 33.4553718512 9.9077249925 12.1563616085
605 191 2 33.9956856112 10.5622386226 13.4126431053