ITEM: TIMESTEP
0
ITEM: NUMBER OF ATOMS
512
ITEM: BOX BOUNDS pp pp pp
-1.9640983479484366e+00 9.8440983485546028e+00
-1.9685983479481455e+00 9.8395983485546026e+00
-1.9765983479570752e+00 9.8315983473497877e+00
ITEM: ATOMS id mol type x y z 
1 1 1 9.64329 -0.229879 2.10329 
2 2 1 4.02897 6.87443 3.5745 
3 3 1 9.22413 0.293865 1.39045 
4 4 1 -0.965375 4.4169 1.36191 
5 5 1 0.771587 7.97984 0.228076 
6 6 1 -1.71767 -1.5608 8.74222 
7 7 1 6.02952 -1.57886 7.96089 
8 8 1 9.69856 6.02693 -0.805231 
9 9 1 -0.208792 -1.85012 0.267828 
10 10 1 7.60439 8.64788 3.40549 
11 11 1 -0.99586 8.14252 9.76221 
12 12 1 7.95534 3.27591 8.12272 
13 13 1 8.95001 2.34752 -0.745312 
14 14 1 4.55314 3.00836 9.65395 
15 15 1 1.23117 4.11899 3.78185 
16 16 1 9.22334 1.86018 0.73515 
17 17 1 4.09437 0.951076 6.24827 
18 18 1 -0.491479 -1.91018 1.77121 
19 19 1 7.80821 4.61439 2.1821 
20 20 1 8.32176 -0.646492 -1.38637 
21 21 1 8.67911 7.78024 9.14469 
22 22 1 6.34807 6.1949 1.0257 
23 23 1 4.98604 1.65363 7.27472 
24 24 1 5.97993 9.36151 -1.16354 
25 25 1 8.7883 8.88107 3.74739 
26 26 1 -1.82493 0.819756 6.36761 
27 27 1 8.83847 -0.206882 7.65458 
28 28 1 3.19028 6.16746 2.42699 
29 29 1 2.05199 -1.83288 8.86957 
30 30 1 5.62443 3.39641 2.59534 
31 31 1 -0.738435 6.06325 5.73273 
32 32 1 1.42485 -0.71569 5.30934 
33 33 1 9.31034 -0.80626 5.80678 
34 34 1 0.894112 6.13479 0.819395 
35 35 1 9.66395 -0.140346 6.63206 
36 36 1 5.04907 0.812496 3.21888 
37 37 1 1.3088 5.98537 1.79042 
38 38 1 3.09357 0.549806 2.40609 
39 39 1 8.35026 2.48223 2.02499 
40 40 1 5.38211 6.74989 6.90321 
41 41 1 9.49938 2.0264 -1.58953 
42 42 1 8.0979 4.862 0.707104 
43 43 1 -0.0834647 4.03275 8.65701 
44 44 1 8.26923 2.40799 9.5085 
45 45 1 2.63969 9.73495 6.04666 
46 46 1 9.17449 6.66441 2.96501 
47 47 1 -1.88854 7.33321 2.59523 
48 48 1 4.16773 0.581256 4.12139 
49 49 1 2.53266 8.38273 -0.577231 
50 50 1 5.12718 5.80571 6.02236 
51 51 1 -1.73495 4.71025 1.9408 
52 52 1 -1.46174 0.222553 5.17713 
53 53 1 9.25499 1.86711 5.41981 
54 54 1 8.68332 1.11873 1.2458 
55 55 1 3.3855 9.47484 1.69433 
56 56 1 -0.343795 5.60384 2.95719 
57 57 1 1.90919 4.84821 2.24999 
58 58 1 6.675 5.97192 7.62728 
59 59 1 5.17671 9.55251 8.40663 
60 60 1 7.24468 -0.987317 2.1067 
61 61 1 6.61357 8.2233 -1.87577 
62 62 1 5.61124 0.325033 7.79915 
63 63 1 7.05136 0.875582 9.26804 
64 64 1 2.20639 5.17816 1.08715 
65 65 1 9.41061 -0.0519997 0.182687 
66 66 1 -1.65948 0.902603 3.507 
67 67 1 0.0104786 2.93864 1.7008 
68 68 1 8.3859 8.88808 5.03417 
69 69 1 6.04615 1.36988 0.861298 
70 70 1 5.97299 -1.77745 5.97847 
71 71 1 8.22162 7.3622 1.17964 
72 72 1 -0.895468 1.04478 4.89098 
73 73 1 9.55926 1.71033 6.71464 
74 74 1 8.04752 -0.420794 3.06942 
75 75 1 4.50748 -1.76491 0.479363 
76 76 1 3.47677 -1.74918 5.6001 
77 77 1 3.50849 1.82121 -0.504088 
78 78 1 4.30804 4.73424 5.51224 
79 79 1 7.1055 6.83947 3.70256 
80 80 1 3.37726 8.0175 2.94346 
81 81 1 5.88822 8.60944 7.47547 
82 82 1 7.14176 -1.68948 3.82763 
83 83 1 4.02013 4.74203 2.75025 
84 84 1 8.43504 2.70661 3.7305 
85 85 1 7.34259 3.52839 5.20637 
86 86 1 4.95798 3.559 3.83653 
87 87 1 1.03715 8.76123 -0.830302 
88 88 1 9.12285 0.930566 2.93785 
89 89 1 -0.888704 4.13216 5.18676 
90 90 1 8.02587 6.7662 7.85946 
91 91 1 0.966663 5.7813 3.60284 
92 92 1 5.63035 0.760623 -0.913685 
93 93 1 6.44537 -0.34071 2.52667 
94 94 1 8.49142 6.68514 3.87085 
95 95 1 0.0581562 3.64832 2.54644 
96 96 1 3.37653 4.13964 9.03699 
97 97 1 7.00718 8.0508 5.15265 
98 98 1 7.5897 0.605478 8.41249 
99 99 1 1.58462 7.15689 5.76764 
100 100 1 1.79856 6.8202 0.607175 
101 101 1 5.04698 6.90617 4.5767 
102 102 1 4.72465 2.91209 2.77978 
103 103 1 1.12374 1.87186 7.93326 
104 104 1 5.9788 7.8211 6.64627 
105 105 1 0.359942 7.00064 5.22903 
106 106 1 7.59715 4.10057 3.78141 
107 107 1 3.75299 4.16331 7.29351 
108 108 1 8.39458 7.1447 -0.386345 
109 109 1 3.31425 3.96761 2.41493 
110 110 1 2.853 2.64894 1.61415 
111 111 1 1.78265 2.94396 9.53224 
112 112 1 -0.363982 3.63717 5.91853 
113 113 1 0.979838 7.38294 2.7119 
114 114 1 1.66131 2.37304 5.95728 
115 115 1 7.26267 7.0334 0.987221 
116 116 1 0.358174 7.5977 4.30652 
117 117 1 5.21703 8.46196 5.49852 
118 118 1 -1.75275 8.98586 7.92589 
119 119 1 8.13645 1.34145 7.43045 
120 120 1 1.03426 4.19488 9.41663 
121 121 1 -1.80906 6.39929 -1.69879 
122 122 1 2.49321 7.45889 -1.17088 
123 123 1 3.93311 5.89039 8.8097 
124 124 1 7.17853 -0.447155 3.62856 
125 125 1 -0.883855 4.01387 4.16408 
126 126 1 4.33586 3.74522 6.52001 
127 127 1 1.19523 0.318922 6.42142 
128 128 1 1.30433 1.99375 2.78168 
129 129 1 -0.258856 2.83378 9.16721 
130 130 1 2.21877 4.06738 1.46097 
131 131 1 5.38538 7.77341 4.01858 
132 132 1 -0.713839 8.05894 1.0505 
133 133 1 4.82834 7.15839 0.410667 
134 134 1 4.79115 2.53619 1.43827 
135 135 1 -0.861304 7.24945 6.29957 
136 136 1 -0.77722 8.11108 5.33994 
137 137 1 3.13209 3.1785 3.82864 
138 138 1 7.38326 4.79411 5.94887 
139 139 1 -0.789288 9.09206 -0.779648 
140 140 1 4.74459 8.0312 1.55592 
141 141 1 4.18575 0.163147 2.71405 
142 142 1 8.58566 8.84175 1.47037 
143 143 1 5.95948 3.3513 9.29678 
144 144 1 6.21319 6.09245 4.21168 
145 145 1 3.49798 -1.51882 3.21748 
146 146 1 7.24312 7.3376 -0.8237 
147 147 1 -0.337289 4.53229 3.3757 
148 148 1 7.23724 2.3718 3.41251 
149 149 1 2.34189 3.44504 4.48477 
150 150 1 1.9494 5.21299 -0.0399115 
151 151 1 -1.83473 3.56486 1.01873 
152 152 1 2.85773 8.05511 7.83001 
153 153 1 0.915749 -0.254792 0.906968 
154 154 1 8.3891 -1.10959 5.43163 
155 155 1 5.95558 7.31114 8.98517 
156 156 1 1.19833 4.69853 -1.48499 
157 157 1 8.34793 -1.5979 8.31972 
158 158 1 2.49396 3.33572 7.43429 
159 159 1 7.39113 1.2673 5.63073 
160 160 1 1.2668 7.96912 1.60951 
161 161 1 9.70836 6.48534 4.89216 
162 162 1 0.590816 5.71669 2.47916 
163 163 1 4.12676 7.86903 7.69151 
164 164 1 -0.140482 3.79339 7.5168 
165 165 1 -0.583441 7.29413 -1.4091 
166 166 1 4.02916 3.41361 8.39724 
167 167 1 3.99812 6.06399 6.33518 
168 168 1 5.64667 -1.87864 -1.92618 
169 169 1 0.0265618 9.26817 5.05839 
170 170 1 4.32752 8.30973 2.54717 
171 171 1 7.997 7.99494 2.53373 
172 172 1 1.09877 6.9435 1.47144 
173 173 1 7.93282 -0.287585 8.1195 
174 174 1 5.57329 8.05218 0.809984 
175 175 1 3.40679 2.78365 2.64609 
176 176 1 9.56345 6.19569 1.00189 
177 177 1 6.65542 8.34637 1.04988 
178 178 1 9.76014 -1.30347 7.38926 
179 179 1 -1.33527 3.38646 1.92081 
180 180 1 9.35889 3.63935 1.81574 
181 181 1 8.32724 -1.92888 -1.44816 
182 182 1 6.63969 -1.56149 5.16845 
183 183 1 0.511726 6.97068 0.136497 
184 184 1 4.73712 4.27249 4.53287 
185 185 1 7.03697 -1.92336 1.79052 
186 186 1 1.86423 6.14681 5.11316 
187 187 1 9.33189 -0.963449 -0.623124 
188 188 1 1.15654 3.66453 2.2508 
189 189 1 -1.53105 5.38299 4.27689 
190 190 1 3.52329 2.00635 7.29565 
191 191 1 7.43287 8.82836 0.441806 
192 192 1 6.2573 4.91754 7.76595 
193 193 1 4.00736 0.115653 -1.35594 
194 194 1 2.53176 0.828927 3.78076 
195 195 1 9.22733 -1.1249 8.47062 
196 196 1 -0.0268783 7.44938 7.05876 
197 197 1 4.86505 2.71857 7.25777 
198 198 1 7.54103 4.92425 9.72592 
199 199 1 9.61283 9.20933 1.48677 
200 200 1 4.084 6.19621 1.14213 
201 201 1 -0.659316 -0.824468 9.15881 
202 202 1 6.31318 5.92067 5.44062 
203 203 1 8.80754 8.06348 0.550576 
204 204 1 7.97069 0.766582 2.19065 
205 205 1 8.27041 0.130949 0.975863 
206 206 1 8.71418 5.21502 9.72125 
207 207 1 2.71 7.92785 5.07909 
208 208 1 -0.45592 2.06138 -0.841222 
209 209 1 6.80109 9.09354 6.54399 
210 210 1 2.21333 3.49343 2.31512 
211 211 1 3.31698 1.73775 -1.77112 
212 212 1 9.54678 1.34983 9.477 
213 213 1 4.88048 7.28317 5.56864 
214 214 1 1.28792 0.504082 4.11762 
215 215 1 0.50353 0.538043 8.27696 
216 216 1 8.58772 1.69206 8.32272 
217 217 1 0.933476 7.09385 8.38468 
218 218 1 5.60318 3.25934 0.588281 
219 219 1 2.41129 4.21855 -1.37271 
220 220 1 6.36694 7.60959 0.14176 
221 221 1 6.90437 4.52025 8.44115 
222 222 1 5.08059 6.34926 1.4824 
223 223 1 5.54777 2.44485 5.19751 
224 224 1 8.88097 2.10322 4.49512 
225 225 1 1.88934 8.18787 7.34489 
226 226 1 6.03915 -0.652052 1.59291 
227 227 1 7.10024 8.91702 4.50521 
228 228 1 0.555707 2.56653 -1.26711 
229 229 1 9.36741 5.89337 2.27721 
230 230 1 6.11466 3.15372 -1.5109 
231 231 1 6.13857 4.96118 3.67602 
232 232 1 7.89805 1.52114 4.30548 
233 233 1 7.36314 -1.21564 -0.41029 
234 234 1 4.94847 5.18953 1.48617 
235 235 1 1.83396 4.34355 6.20692 
236 236 1 -1.25492 -1.65087 4.38188 
237 237 1 6.4061 -1.04354 6.89947 
238 238 1 8.91103 5.16424 3.1968 
239 239 1 1.30442 6.31029 -0.168567 
240 240 1 2.32603 8.68447 -1.49333 
241 241 1 5.65365 9.4526 4.93777 
242 242 1 1.00232 9.10521 -1.82914 
243 243 1 9.55084 1.04359 -0.715538 
244 244 1 3.34996 2.04138 3.34152 
245 245 1 2.54516 7.91974 2.06427 
246 246 1 3.14015 8.6577 6.65286 
247 247 1 -0.993438 6.51501 4.81316 
248 248 1 6.05387 9.76825 7.03261 
249 249 1 4.52378 -1.48083 5.98983 
250 250 1 9.65338 9.77839 3.98354 
251 251 1 1.59017 3.7543 -1.72385 
252 252 1 6.34977 8.90089 8.35195 
253 253 1 7.94069 5.55753 3.93499 
254 254 1 7.1143 5.10781 4.36355 
255 255 1 5.0713 5.76673 -0.593959 
256 256 1 1.79297 0.137096 -1.31623 
257 257 1 3.22873 2.65329 8.20583 
258 258 1 4.29969 -0.566532 5.62567 
259 259 1 -0.0112021 8.89753 9.38928 
260 260 1 5.28155 -1.05893 -1.08416 
261 261 1 7.83183 5.31187 -0.202797 
262 262 1 3.86645 1.66074 8.18442 
263 263 1 8.11987 -1.5133 1.75245 
264 264 1 4.63978 7.13919 2.60393 
265 265 1 7.24528 1.57995 1.93659 
266 266 1 7.02779 2.54298 6.55928 
267 267 1 3.84939 2.92219 4.59041 
268 268 1 -1.16789 8.80085 0.312818 
269 269 1 5.93071 -0.670885 -0.048279 
270 270 1 5.22172 8.9545 6.78197 
271 271 1 4.8672 -0.234863 9.18001 
272 272 1 4.0563 3.10724 1.94912 
273 273 1 3.46643 8.36978 9.30522 
274 274 1 9.32123 -1.67356 1.7607 
275 275 1 -0.0902998 -0.0345115 5.80867 
276 276 1 -0.53448 3.18132 0.199878 
277 277 1 4.02389 2.28836 6.44753 
278 278 1 -0.798954 2.48185 1.24641 
279 279 1 2.61463 4.35206 -0.423769 
280 280 1 -1.47566 -0.926626 3.25983 
281 281 1 3.35223 4.19455 3.76677 
282 282 1 6.54463 0.467579 5.48569 
283 283 1 2.96219 5.17026 0.191621 
284 284 1 -1.74077 5.37662 9.44038 
285 285 1 4.91313 -0.730337 0.335207 
286 286 1 3.33409 6.42406 7.21441 
287 287 1 6.99477 9.69234 8.47117 
288 288 1 0.882665 4.55234 2.75238 
289 289 1 -0.639248 6.36049 1.96446 
290 290 1 5.32997 1.96815 2.9401 
291 291 1 -0.803068 8.45461 7.86561 
292 292 1 2.61018 4.8086 6.69837 
293 293 1 5.91346 5.00119 0.834149 
294 294 1 0.90224 -0.91837 9.34186 
295 295 1 7.72231 9.63228 1.09839 
296 296 1 5.53289 9.56021 2.5956 
297 297 1 1.31954 3.80991 4.9621 
298 298 1 -0.164583 1.11945 -0.47718 
299 299 1 -0.161956 8.27063 -1.19146 
300 300 1 -0.694371 3.10704 3.13766 
301 301 1 4.17604 8.96936 6.68648 
302 302 1 9.08039 6.73292 9.45477 
303 303 1 5.77422 2.25741 6.23885 
304 304 1 2.83788 2.58231 6.82337 
305 305 1 7.47893 6.59967 6.6443 
306 306 1 6.45662 6.63707 -0.215421 
307 307 1 1.09252 9.63321 0.47505 
308 308 1 3.7451 -0.425809 4.7007 
309 309 1 6.94053 7.75961 2.31886 
310 310 1 7.78398 5.41236 7.93569 
311 311 1 4.80318 8.32074 9.10861 
312 312 1 6.58354 -0.0260537 6.386 
313 313 1 5.38286 2.21458 9.04406 
314 314 1 0.874073 4.93961 -0.143277 
315 315 1 4.61076 0.876064 8.07231 
316 316 1 2.58774 -0.357441 2.46075 
317 317 1 0.0227686 -0.336976 4.49271 
318 318 1 4.08659 1.74568 1.83058 
319 319 1 -1.12773 -0.481567 4.2633 
320 320 1 8.87193 -0.83504 9.36568 
321 321 1 3.78106 9.38986 3.83301 
322 322 1 5.15815 8.53197 3.10627 
323 323 1 4.57704 1.47668 -1.17033 
324 324 1 0.215701 5.13913 5.70243 
325 325 1 2.4688 9.01088 8.75298 
326 326 1 8.57183 8.65483 8.46543 
327 327 1 5.03567 3.77933 5.70526 
328 328 1 0.743671 4.60835 1.62218 
329 329 1 9.77614 3.39864 -0.799101 
330 330 1 -1.86974 4.35492 3.18521 
331 331 1 9.37649 -1.10464 0.489493 
332 332 1 8.83825 9.3801 7.79626 
333 333 1 2.57034 2.82288 0.288682 
334 334 1 0.201961 8.39767 2.23347 
335 335 1 4.07269 8.56438 4.60392 
336 336 1 3.97422 7.85258 3.8948 
337 337 1 2.07163 -1.7368 0.836867 
338 338 1 5.0845 2.68768 4.3278 
339 339 1 3.9562 1.79689 4.16074 
340 340 1 8.79212 2.54028 6.05243 
341 341 1 1.23773 8.22084 8.14232 
342 342 1 -1.15466 1.57778 5.96375 
343 343 1 4.9707 1.55662 4.22443 
344 344 1 9.30116 8.01999 -1.85245 
345 345 1 3.14102 9.75971 8.97175 
346 346 1 6.71609 3.54891 1.24959 
347 347 1 5.77519 4.03572 4.45643 
348 348 1 4.76829 7.89348 6.85132 
349 349 1 7.59744 6.65254 -1.43896 
350 350 1 9.12088 9.27478 -0.789078 
351 351 1 -0.515157 0.944038 2.77115 
352 352 1 -0.718113 6.80784 3.50339 
353 353 1 -0.842356 2.69511 5.6187 
354 354 1 -1.39487 9.51312 2.53025 
355 355 1 6.23365 2.87644 3.22905 
356 356 1 6.35091 -1.82087 0.71798 
357 357 1 -1.69814 6.52259 2.05052 
358 358 1 5.02616 8.71833 -0.748364 
359 359 1 -0.606981 6.22524 0.418138 
360 360 1 -0.00415636 1.41338 7.36714 
361 361 1 2.626 -1.6096 2.60219 
362 362 1 0.563019 5.77714 -1.17611 
363 363 1 7.82592 5.95633 1.7135 
364 364 1 4.92582 4.37883 7.18405 
365 365 1 5.65346 4.15513 -1.87964 
366 366 1 2.50139 5.08352 7.74544 
367 367 1 8.81718 0.164336 9.51391 
368 368 1 3.32749 6.8938 4.9157 
369 369 1 2.9237 -1.06216 8.86268 
370 370 1 3.44784 9.12715 2.74256 
371 371 1 2.04659 1.29253 -1.31785 
372 372 1 6.36114 -0.147583 9.71623 
373 373 1 3.67935 -0.479778 1.31994 
374 374 1 3.70475 2.6588 -1.23899 
375 375 1 2.48721 3.95071 8.42934 
376 376 1 9.65237 3.53017 5.45468 
377 377 1 2.50151 8.82527 3.04689 
378 378 1 5.98135 8.53638 2.25575 
379 379 1 4.20864 1.19795 0.588325 
380 380 1 0.306132 3.55893 4.27938 
381 381 1 7.83277 3.5662 9.75978 
382 382 1 5.53942 -0.894176 9.55933 
383 383 1 -1.08552 1.59437 8.5154 
384 384 1 2.45504 6.17846 1.57679 
385 385 1 5.47587 5.9063 0.565155 
386 386 1 9.08837 0.717672 6.84925 
387 387 1 0.898389 4.90052 7.3627 
388 388 1 9.74056 7.25181 -1.10045 
389 389 1 4.51079 5.70061 7.14897 
390 390 1 9.12429 3.40046 6.48199 
391 391 1 3.38699 0.172666 3.59272 
392 392 1 6.75986 -0.833286 0.580604 
393 393 1 3.79283 5.97541 4.86122 
394 394 1 9.16954 -1.51749 -1.79537 
395 395 1 6.11067 7.77475 5.56895 
396 396 1 0.897029 2.68224 4.79408 
397 397 1 2.73476 0.726847 -0.771416 
398 398 1 -1.90819 1.72949 4.3927 
399 399 1 0.822331 2.65711 3.45862 
400 400 1 3.9368 -0.993306 8.27899 
401 401 1 4.68358 -0.797715 2.34772 
402 402 1 3.39188 3.13152 5.66759 
403 403 1 3.11707 4.37653 4.75788 
404 404 1 1.92852 3.3554 -0.896818 
405 405 1 4.94395 4.50788 3.13316 
406 406 1 4.57442 9.67372 2.32875 
407 407 1 4.78237 9.29416 4.37043 
408 408 1 4.80547 9.41591 5.70338 
409 409 1 6.3173 8.75452 3.2773 
410 410 1 7.23814 5.85157 2.71776 
411 411 1 6.32742 3.49889 7.67916 
412 412 1 4.66842 -1.30001 3.27608 
413 413 1 0.497638 9.32466 7.24196 
414 414 1 8.34218 6.06136 -1.71147 
415 415 1 3.80076 9.16224 5.34654 
416 416 1 5.32463 1.97553 -0.314244 
417 417 1 -0.769183 -0.114889 -0.227962 
418 418 1 7.31607 8.89227 9.09754 
419 419 1 1.56192 0.109276 8.51829 
420 420 1 -0.170271 7.65626 3.23304 
421 421 1 -1.25111 4.82296 5.83573 
422 422 1 9.17918 0.623681 5.33112 
423 423 1 -1.23275 -0.148199 2.42914 
424 424 1 0.196918 1.37947 8.79947 
425 425 1 6.74551 6.66096 1.94153 
426 426 1 3.25087 1.67266 9.03446 
427 427 1 -1.31193 2.09689 -1.70407 
428 428 1 6.26992 2.64104 1.25921 
429 429 1 8.28409 7.94578 7.80081 
430 430 1 1.54935 3.33721 1.11973 
431 431 1 9.4156 3.05637 -1.84875 
432 432 1 6.4255 3.84775 3.57871 
433 433 1 0.974578 -1.52048 6.71438 
434 434 1 5.30031 1.37328 5.85147 
435 435 1 5.47254 5.42409 7.37472 
436 436 1 -0.915738 9.00097 8.83351 
437 437 1 0.0341469 0.680276 4.36529 
438 438 1 3.9287 5.4099 0.458988 
439 439 1 4.10568 -1.48638 1.73557 
440 440 1 -0.0117135 0.566333 6.78715 
441 441 1 8.43997 1.56752 6.47692 
442 442 1 -1.14825 1.86836 2.15651 
443 443 1 -0.226986 -1.21179 6.19096 
444 444 1 4.20447 8.31602 0.391223 
445 445 1 -1.82395 8.24138 0.878548 
446 446 1 7.52121 3.4123 -0.365448 
447 447 1 0.504926 9.72105 2.24758 
448 448 1 8.23701 8.13059 6.80592 
449 449 1 -0.70456 0.0620287 3.43159 
450 450 1 8.78005 9.55388 8.94689 
451 451 1 -1.28932 -0.272155 -1.65956 
452 452 1 -0.304508 9.21806 3.06891 
453 453 1 5.72672 2.47421 7.75907 
454 454 1 3.65562 -1.30232 -0.916663 
455 455 1 6.23275 -0.182667 8.51838 
456 456 1 7.81088 1.78538 0.951649 
457 457 1 1.75487 4.16114 7.22476 
458 458 1 1.35846 8.924 2.88152 
459 459 1 0.680381 7.02196 9.49569 
460 460 1 -1.2419 4.43264 6.79182 
461 461 1 1.08637 5.66374 5.61182 
462 462 1 6.74774 8.97702 5.5094 
463 463 1 0.992573 3.57708 5.9248 
464 464 1 0.945914 3.66518 -0.0738704 
465 465 1 -0.643702 8.41747 3.72089 
466 466 1 9.40438 9.60237 5.93943 
467 467 1 -0.280306 -1.02654 2.57404 
468 468 1 -0.234979 1.08846 5.72486 
469 469 1 -1.88181 3.31615 8.75169 
470 470 1 5.27133 5.33828 8.97057 
471 471 1 3.85964 5.012 6.72465 
472 472 1 7.63114 7.84218 4.07435 
473 473 1 9.48147 9.37402 2.95776 
474 474 1 8.80306 5.73341 0.118246 
475 475 1 8.86779 -1.07004 6.69433 
476 476 1 9.19871 0.0801183 3.52948 
477 477 1 -0.741514 8.06519 -0.359141 
478 478 1 9.59113 5.46516 5.01153 
479 479 1 -1.39715 4.46155 0.0648521 
480 480 1 6.31575 -1.43828 9.15012 
481 481 1 5.14479 5.51157 -1.60936 
482 482 1 7.00657 8.2073 -0.390855 
483 483 1 1.82894 8.84457 9.48777 
484 484 1 9.55919 8.10303 2.06471 
485 485 1 3.93374 7.10559 1.85985 
486 486 1 7.6997 3.76714 1.36561 
487 487 1 -1.29031 0.715361 1.81526 
488 488 1 -1.53581 3.00325 4.38522 
489 489 1 2.94997 -1.29308 4.35299 
490 490 1 9.63793 2.66141 7.16402 
491 491 1 0.549616 6.89261 -1.05621 
492 492 1 5.93347 6.93212 3.50986 
493 493 1 7.22543 1.55299 8.48598 
494 494 1 0.698024 2.97695 9.6328 
495 495 1 3.04067 4.90879 -1.78382 
496 496 1 0.194949 2.42429 5.73395 
497 497 1 7.32925 -0.467529 -1.16783 
498 498 1 9.53915 4.76154 4.00768 
499 499 1 8.12071 0.541458 4.55968 
500 500 1 9.79118 5.06106 -1.1605 
501 501 1 -1.51326 -1.64133 6.18048 
502 502 1 7.64561 8.22875 5.95634 
503 503 1 4.54714 -1.5262 4.31692 
504 504 1 5.2471 -1.14834 7.11171 
505 505 1 3.19636 8.79027 0.168014 
506 506 1 0.635495 5.54355 6.60825 
507 507 1 -0.308144 4.4166 0.576822 
508 508 1 1.185 3.14264 8.16729 
509 509 1 4.99647 5.4981 3.96058 
510 510 1 9.11303 4.57697 2.16954 
511 511 1 2.43466 3.93043 9.48985 
512 512 1 1.67 7.07065 7.08275 
ITEM: TIMESTEP
5000
ITEM: NUMBER OF ATOMS
512
ITEM: BOX BOUNDS pp pp pp
-1.9640983479484366e+00 9.8440983485546028e+00
-1.9685983479481455e+00 9.8395983485546026e+00
-1.9765983479570752e+00 9.8315983473497877e+00
ITEM: ATOMS id mol type x y z 
1 1 1 9.64295 -0.230498 2.10384 
2 2 1 4.02904 6.8741 3.57436 
3 3 1 9.22434 0.293841 1.38984 
4 4 1 -0.96525 4.41659 1.36188 
5 5 1 0.771662 7.98012 0.228082 
6 6 1 -1.71712 -1.56112 8.7424 
7 7 1 6.02953 -1.57872 7.96124 
8 8 1 9.69829 6.02714 -0.804593 
9 9 1 -0.208778 -1.85019 0.267843 
10 10 1 7.60435 8.6481 3.40536 
11 11 1 -0.995782 8.1426 9.76224 
12 12 1 7.95533 3.2759 8.12275 
13 13 1 8.94997 2.34761 -0.745183 
14 14 1 4.55316 3.00832 9.65392 
15 15 1 1.23111 4.11892 3.78186 
16 16 1 9.22343 1.86035 0.735026 
17 17 1 4.09444 0.951175 6.24829 
18 18 1 -0.491529 -1.91018 1.7713 
19 19 1 7.80828 4.61443 2.18205 
20 20 1 8.32228 -0.646679 -1.38653 
21 21 1 8.67895 7.78013 9.14447 
22 22 1 6.34841 6.19503 1.02581 
23 23 1 4.98601 1.65351 7.27472 
24 24 1 5.98011 9.36112 -1.16304 
25 25 1 8.78826 8.8811 3.7474 
26 26 1 -1.82437 0.819758 6.36711 
27 27 1 8.83899 -0.206908 7.65427 
28 28 1 3.19035 6.16751 2.42695 
29 29 1 2.05189 -1.8327 8.86964 
30 30 1 5.6244 3.39683 2.59506 
31 31 1 -0.738352 6.06312 5.73293 
32 32 1 1.42481 -0.715663 5.30936 
33 33 1 9.31089 -0.806085 5.80653 
34 34 1 0.893998 6.13464 0.819166 
35 35 1 9.66391 -0.140875 6.63213 
36 36 1 5.04896 0.81256 3.21894 
37 37 1 1.30933 5.98501 1.79039 
38 38 1 3.09383 0.55006 2.40617 
39 39 1 8.35022 2.48218 2.02494 
40 40 1 5.38206 6.74988 6.90314 
41 41 1 9.49879 2.02656 -1.58906 
42 42 1 8.09798 4.8619 0.707395 
43 43 1 -0.0833984 4.03267 8.65702 
44 44 1 8.2693 2.40803 9.5085 
45 45 1 2.63916 9.73466 6.04698 
46 46 1 9.17435 6.66446 2.9652 
47 47 1 -1.8883 7.3334 2.596 
48 48 1 4.16809 0.581496 4.12156 
49 49 1 2.53276 8.38245 -0.576406 
50 50 1 5.12711 5.80574 6.02246 
51 51 1 -1.73473 4.71045 1.94104 
52 52 1 -1.46195 0.222312 5.17726 
53 53 1 9.25538 1.86665 5.42004 
54 54 1 8.68271 1.11922 1.2459 
55 55 1 3.38551 9.47485 1.69437 
56 56 1 -0.34399 5.60385 2.95729 
57 57 1 1.90907 4.84815 2.24987 
58 58 1 6.67502 5.97186 7.62725 
59 59 1 5.17685 9.5525 8.4066 
60 60 1 7.24471 -0.986673 2.10692 
61 61 1 6.61359 8.22333 -1.87579 
62 62 1 5.61112 0.325108 7.79907 
63 63 1 7.05113 0.875402 9.26847 
64 64 1 2.20634 5.17815 1.08718 
65 65 1 9.41057 -0.0519277 0.182701 
66 66 1 -1.65947 0.902521 3.50699 
67 67 1 0.0107409 2.93884 1.70096 
68 68 1 8.3858 8.88806 5.03413 
69 69 1 6.04615 1.36996 0.861304 
70 70 1 5.97283 -1.77757 5.97853 
71 71 1 8.22196 7.36232 1.17976 
72 72 1 -0.895464 1.04506 4.89078 
73 73 1 9.55908 1.71043 6.71449 
74 74 1 8.04785 -0.420755 3.06916 
75 75 1 4.50746 -1.76491 0.479421 
76 76 1 3.47716 -1.74806 5.59998 
77 77 1 3.50851 1.82115 -0.504175 
78 78 1 4.30805 4.7342 5.5123 
79 79 1 7.10547 6.83944 3.70256 
80 80 1 3.37711 8.01747 2.94348 
81 81 1 5.88835 8.60925 7.47538 
82 82 1 7.14175 -1.68948 3.82766 
83 83 1 4.01976 4.74214 2.75015 
84 84 1 8.43489 2.70664 3.7304 
85 85 1 7.34259 3.52842 5.20636 
86 86 1 4.95802 3.55919 3.83577 
87 87 1 1.03714 8.7611 -0.830077 
88 88 1 9.12285 0.930801 2.93762 
89 89 1 -0.888755 4.13199 5.1865 
90 90 1 8.02584 6.76622 7.85941 
91 91 1 0.9666 5.78126 3.60274 
92 92 1 5.63028 0.760665 -0.913681 
93 93 1 6.44547 -0.340662 2.52688 
94 94 1 8.49135 6.6851 3.87083 
95 95 1 0.0582434 3.64848 2.54648 
96 96 1 3.37673 4.13968 9.03697 
97 97 1 7.0075 8.05039 5.15207 
98 98 1 7.58984 0.6056 8.4124 
99 99 1 1.5846 7.15682 5.76763 
100 100 1 1.7986 6.82026 0.607415 
101 101 1 5.04697 6.90602 4.57655 
102 102 1 4.72437 2.91192 2.77997 
103 103 1 1.12365 1.87186 7.93329 
104 104 1 5.97866 7.82117 6.64635 
105 105 1 0.359931 7.00057 5.22912 
106 106 1 7.59706 4.10063 3.78144 
107 107 1 3.75281 4.16303 7.29396 
108 108 1 8.39452 7.1447 -0.38636 
109 109 1 3.31417 3.96741 2.41494 
110 110 1 2.85304 2.64906 1.61422 
111 111 1 1.78288 2.94346 9.53183 
112 112 1 -0.363692 3.63703 5.91885 
113 113 1 0.979767 7.383 2.71179 
114 114 1 1.66126 2.37313 5.95726 
115 115 1 7.26218 7.03326 0.987142 
116 116 1 0.358078 7.59775 4.30639 
117 117 1 5.21709 8.4618 5.49849 
118 118 1 -1.75288 8.98597 7.92598 
119 119 1 8.13625 1.34122 7.43073 
120 120 1 1.03356 4.19515 9.41557 
121 121 1 -1.80891 6.39933 -1.69942 
122 122 1 2.49318 7.45893 -1.17093 
123 123 1 3.93315 5.89035 8.80968 
124 124 1 7.1782 -0.447225 3.62872 
125 125 1 -0.883915 4.01372 4.16369 
126 126 1 4.33581 3.74507 6.51988 
127 127 1 1.19512 0.318911 6.4214 
128 128 1 1.30442 1.99366 2.78157 
129 129 1 -0.258968 2.83377 9.16713 
130 130 1 2.21891 4.06785 1.46076 
131 131 1 5.38534 7.77356 4.0185 
132 132 1 -0.713845 8.05896 1.05046 
133 133 1 4.82839 7.15841 0.410802 
134 134 1 4.79135 2.53611 1.43822 
135 135 1 -0.861255 7.24943 6.29948 
136 136 1 -0.777168 8.11102 5.33995 
137 137 1 3.13215 3.17811 3.82835 
138 138 1 7.38323 4.7941 5.94883 
139 139 1 -0.789301 9.09207 -0.779592 
140 140 1 4.74454 8.03111 1.55592 
141 141 1 4.18568 0.16316 2.71412 
142 142 1 8.58557 8.84169 1.47034 
143 143 1 5.95942 3.3512 9.29626 
144 144 1 6.21321 6.09238 4.21168 
145 145 1 3.4982 -1.51884 3.21757 
146 146 1 7.24293 7.3376 -0.823333 
147 147 1 -0.337185 4.53226 3.37558 
148 148 1 7.2373 2.37182 3.41254 
149 149 1 2.34175 3.44518 4.48491 
150 150 1 1.94907 5.21303 -0.0399591 
151 151 1 -1.83437 3.56494 1.018 
152 152 1 2.85785 8.05515 7.83003 
153 153 1 0.915746 -0.25481 0.906965 
154 154 1 8.38885 -1.1097 5.43157 
155 155 1 5.95558 7.31119 8.98518 
156 156 1 1.19834 4.69889 -1.48461 
157 157 1 8.34709 -1.59765 8.31927 
158 158 1 2.49388 3.33605 7.43462 
159 159 1 7.39117 1.26728 5.63071 
160 160 1 1.26681 7.96936 1.60962 
161 161 1 9.7084 6.48565 4.89208 
162 162 1 0.590768 5.71652 2.47934 
163 163 1 4.12657 7.86908 7.69166 
164 164 1 -0.140463 3.79342 7.51681 
165 165 1 -0.583457 7.29406 -1.40906 
166 166 1 4.02913 3.41364 8.39722 
167 167 1 3.99797 6.06411 6.33482 
168 168 1 5.64641 -1.87858 -1.92649 
169 169 1 0.0265161 9.26815 5.05839 
170 170 1 4.32725 8.30968 2.54693 
171 171 1 7.99706 7.99497 2.53374 
172 172 1 1.09867 6.94377 1.47144 
173 173 1 7.93268 -0.288325 8.11954 
174 174 1 5.57328 8.05213 0.809961 
175 175 1 3.4064 2.78391 2.64619 
176 176 1 9.56343 6.19567 1.00197 
177 177 1 6.65536 8.34626 1.04991 
178 178 1 9.76004 -1.30345 7.38928 
179 179 1 -1.33504 3.38646 1.92104 
180 180 1 9.35866 3.6391 1.81612 
181 181 1 8.32666 -1.92911 -1.44789 
182 182 1 6.63975 -1.5616 5.16831 
183 183 1 0.511583 6.97043 0.136516 
184 184 1 4.73683 4.27288 4.53324 
185 185 1 7.03637 -1.92375 1.79071 
186 186 1 1.86445 6.14702 5.11306 
187 187 1 9.33182 -0.963427 -0.623206 
188 188 1 1.15647 3.66443 2.25059 
189 189 1 -1.53006 5.38342 4.27665 
190 190 1 3.52333 2.00613 7.29583 
191 191 1 7.43289 8.82828 0.441739 
192 192 1 6.25739 4.91745 7.76582 
193 193 1 4.00737 0.115672 -1.35593 
194 194 1 2.53171 0.828963 3.78075 
195 195 1 9.22747 -1.12454 8.46986 
196 196 1 -0.0268825 7.44939 7.05876 
197 197 1 4.86457 2.71883 7.25747 
198 198 1 7.54111 4.92424 9.7259 
199 199 1 9.61314 9.20866 1.48665 
200 200 1 4.08391 6.19639 1.14226 
201 201 1 -0.659375 -0.824476 9.15884 
202 202 1 6.31312 5.92067 5.44056 
203 203 1 8.80759 8.06354 0.550614 
204 204 1 7.97082 0.766552 2.19059 
205 205 1 8.27021 0.130879 0.975785 
206 206 1 8.71449 5.21439 9.72099 
207 207 1 2.71006 7.9278 5.07909 
208 208 1 -0.455994 2.06166 -0.841373 
209 209 1 6.80103 9.09352 6.54426 
210 210 1 2.21355 3.49318 2.31543 
211 211 1 3.31704 1.73778 -1.77035 
212 212 1 9.54681 1.3494 9.47652 
213 213 1 4.88053 7.2833 5.56883 
214 214 1 1.28788 0.504086 4.11763 
215 215 1 0.503659 0.537801 8.27673 
216 216 1 8.58775 1.69211 8.32294 
217 217 1 0.933501 7.09392 8.38465 
218 218 1 5.60321 3.2593 0.588351 
219 219 1 2.41121 4.2187 -1.37249 
220 220 1 6.36671 7.60963 0.142176 
221 221 1 6.90473 4.52004 8.4415 
222 222 1 5.08073 6.34934 1.48249 
223 223 1 5.54794 2.44469 5.19789 
224 224 1 8.88077 2.10323 4.49485 
225 225 1 1.88954 8.18783 7.34453 
226 226 1 6.03916 -0.652185 1.59269 
227 227 1 7.10037 8.91706 4.5049 
228 228 1 0.555589 2.56627 -1.26652 
229 229 1 9.36688 5.8926 2.2772 
230 230 1 6.11469 3.15368 -1.51054 
231 231 1 6.13853 4.96116 3.67613 
232 232 1 7.89802 1.52155 4.30539 
233 233 1 7.36311 -1.21575 -0.410118 
234 234 1 4.94848 5.18966 1.48607 
235 235 1 1.8336 4.3434 6.20636 
236 236 1 -1.25471 -1.6507 4.38191 
237 237 1 6.40606 -1.04343 6.89945 
238 238 1 8.91103 5.16427 3.19668 
239 239 1 1.30439 6.31002 -0.168932 
240 240 1 2.32635 8.68453 -1.49329 
241 241 1 5.65392 9.45262 4.93804 
242 242 1 1.00163 9.10545 -1.82898 
243 243 1 9.55083 1.04365 -0.71557 
244 244 1 3.34979 2.04112 3.34168 
245 245 1 2.54517 7.91979 2.06435 
246 246 1 3.14003 8.65768 6.65287 
247 247 1 -0.993445 6.51509 4.81292 
248 248 1 6.05371 9.76782 7.03244 
249 249 1 4.52372 -1.48074 5.99029 
250 250 1 9.65317 9.77829 3.98343 
251 251 1 1.58962 3.75419 -1.72369 
252 252 1 6.34965 8.90076 8.35225 
253 253 1 7.94103 5.55773 3.93474 
254 254 1 7.1139 5.10761 4.36364 
255 255 1 5.0713 5.76681 -0.59359 
256 256 1 1.79304 0.137185 -1.31621 
257 257 1 3.22871 2.65325 8.20577 
258 258 1 4.29958 -0.566031 5.6255 
259 259 1 -0.0110546 8.89745 9.38947 
260 260 1 5.28162 -1.05895 -1.08419 
261 261 1 7.83174 5.31199 -0.203051 
262 262 1 3.86676 1.66068 8.18467 
263 263 1 8.12023 -1.513 1.75278 
264 264 1 4.64005 7.13931 2.60426 
265 265 1 7.24532 1.58001 1.93655 
266 266 1 7.02775 2.54295 6.55927 
267 267 1 3.84954 2.92216 4.59047 
268 268 1 -1.16764 8.80116 0.312633 
269 269 1 5.9306 -0.670901 -0.0484899 
270 270 1 5.22173 8.95467 6.78155 
271 271 1 4.86687 -0.234511 9.17978 
272 272 1 4.05644 3.10755 1.94871 
273 273 1 3.46638 8.36985 9.30517 
274 274 1 9.321 -1.67298 1.76088 
275 275 1 -0.0903058 -0.0345157 5.80863 
276 276 1 -0.534495 3.18136 0.199967 
277 277 1 4.02414 2.28852 6.4472 
278 278 1 -0.799297 2.48179 1.24627 
279 279 1 2.61473 4.3521 -0.422818 
280 280 1 -1.47559 -0.926573 3.25984 
281 281 1 3.35243 4.19476 3.76633 
282 282 1 6.54465 0.467837 5.48532 
283 283 1 2.96212 5.17024 0.191706 
284 284 1 -1.74086 5.37668 9.44051 
285 285 1 4.91306 -0.730347 0.335237 
286 286 1 3.33417 6.42399 7.21437 
287 287 1 6.99492 9.69287 8.4711 
288 288 1 0.882553 4.55257 2.75249 
289 289 1 -0.639077 6.36043 1.96451 
290 290 1 5.32994 1.96819 2.94017 
291 291 1 -0.802962 8.45455 7.86559 
292 292 1 2.61056 4.80871 6.69853 
293 293 1 5.91357 5.00098 0.834278 
294 294 1 0.90226 -0.918356 9.34183 
295 295 1 7.72256 9.63179 1.09765 
296 296 1 5.53358 9.56002 2.59585 
297 297 1 1.3196 3.80991 4.96173 
298 298 1 -0.164537 1.11919 -0.477093 
299 299 1 -0.161655 8.27079 -1.19181 
300 300 1 -0.69441 3.10709 3.1377 
301 301 1 4.17596 8.96936 6.68635 
302 302 1 9.08039 6.73293 9.45489 
303 303 1 5.77428 2.25752 6.2391 
304 304 1 2.8377 2.58236 6.82282 
305 305 1 7.47891 6.59967 6.64439 
306 306 1 6.45668 6.63678 -0.21546 
307 307 1 1.09247 9.6332 0.475033 
308 308 1 3.74505 -0.425826 4.7005 
309 309 1 6.94042 7.75962 2.31882 
310 310 1 7.78387 5.41241 7.9357 
311 311 1 4.80317 8.32077 9.10857 
312 312 1 6.58355 -0.0262946 6.3864 
313 313 1 5.38284 2.2147 9.04404 
314 314 1 0.874067 4.93961 -0.143312 
315 315 1 4.61088 0.876021 8.07226 
316 316 1 2.58765 -0.357794 2.4608 
317 317 1 0.0226675 -0.337373 4.49278 
318 318 1 4.08657 1.74577 1.8306 
319 319 1 -1.12775 -0.4816 4.26341 
320 320 1 8.87139 -0.834839 9.36556 
321 321 1 3.78113 9.38986 3.83302 
322 322 1 5.15857 8.5321 3.10652 
323 323 1 4.577 1.4767 -1.17026 
324 324 1 0.215145 5.13882 5.70238 
325 325 1 2.46926 9.01045 8.75219 
326 326 1 8.57178 8.65466 8.46597 
327 327 1 5.03571 3.77937 5.70506 
328 328 1 0.743756 4.60833 1.62227 