ITEM: TIMESTEP
0
ITEM: NUMBER OF ATOMS
432
ITEM: BOX BOUNDS pp pp pp
-3.1000000000000000e-01 7.1280000000000001e+00
-3.1000000000000000e-01 7.1280000000000001e+00
-3.1000000000000000e-01 7.1280000000000001e+00
ITEM: ATOMS id mol type x y z 
1 1 1 0 0 0 
2 2 1 0.62 0.62 0.62 
3 3 1 0 0 1.24 
4 4 1 0 0 6.198 
5 5 1 1.24 0 0 
6 6 1 6.198 0 0 
7 7 1 0 1.24 0 
8 8 1 0 6.198 0 
9 9 1 0.62 0.62 1.859 
10 10 1 0.62 0.62 6.818 
11 11 1 1.859 0.62 0.62 
12 12 1 6.818 0.62 0.62 
13 13 1 0.62 1.859 0.62 
14 14 1 0.62 6.818 0.62 
15 15 1 0 0 2.479 
16 16 1 0 0 4.958 
17 17 1 2.479 0 0 
18 18 1 4.958 0 0 
19 19 1 0 2.479 0 
20 20 1 0 4.958 0 
21 21 1 0.62 0.62 3.099 
22 22 1 0.62 0.62 5.578 
23 23 1 3.099 0.62 0.62 
24 24 1 5.578 0.62 0.62 
25 25 1 0.62 3.099 0.62 
26 26 1 0.62 5.578 0.62 
27 27 1 0 0 3.719 
28 28 1 3.719 0 0 
29 29 1 0 3.719 0 
30 30 1 0.62 0.62 4.339 
31 31 1 4.339 0.62 0.62 
32 32 1 0.62 4.339 0.62 
33 33 1 0 1.24 1.24 
34 34 1 0 6.198 6.198 
35 35 1 0 6.198 1.24 
36 36 1 0 1.24 6.198 
37 37 1 1.24 0 1.24 
38 38 1 6.198 0 6.198 
39 39 1 1.24 0 6.198 
40 40 1 6.198 0 1.24 
41 41 1 1.24 1.24 0 
42 42 1 6.198 6.198 0 
43 43 1 6.198 1.24 0 
44 44 1 1.24 6.198 0 
45 45 1 0.62 1.859 1.859 
46 46 1 0.62 6.818 6.818 
47 47 1 0.62 6.818 1.859 
48 48 1 0.62 1.859 6.818 
49 49 1 1.859 0.62 1.859 
50 50 1 6.818 0.62 6.818 
51 51 1 1.859 0.62 6.818 
52 52 1 6.818 0.62 1.859 
53 53 1 1.859 1.859 0.62 
54 54 1 6.818 6.818 0.62 
55 55 1 6.818 1.859 0.62 
56 56 1 1.859 6.818 0.62 
57 57 1 0 1.24 2.479 
58 58 1 0 6.198 4.958 
59 59 1 0 6.198 2.479 
60 60 1 0 1.24 4.958 
61 61 1 2.479 0 1.24 
62 62 1 4.958 0 6.198 
63 63 1 2.479 0 6.198 
64 64 1 4.958 0 1.24 
65 65 1 1.24 2.479 0 
66 66 1 6.198 4.958 0 
67 67 1 6.198 2.479 0 
68 68 1 1.24 4.958 0 
69 69 1 1.24 0 4.958 
70 70 1 6.198 0 2.479 
71 71 1 6.198 0 4.958 
72 72 1 1.24 0 2.479 
73 73 1 0 2.479 6.198 
74 74 1 0 4.958 1.24 
75 75 1 0 2.479 1.24 
76 76 1 0 4.958 6.198 
77 77 1 2.479 1.24 0 
78 78 1 4.958 6.198 0 
79 79 1 2.479 6.198 0 
80 80 1 4.958 1.24 0 
81 81 1 0.62 1.859 3.099 
82 82 1 0.62 6.818 5.578 
83 83 1 0.62 6.818 3.099 
84 84 1 0.62 1.859 5.578 
85 85 1 3.099 0.62 1.859 
86 86 1 5.578 0.62 6.818 
87 87 1 3.099 0.62 6.818 
88 88 1 5.578 0.62 1.859 
89 89 1 1.859 3.099 0.62 
90 90 1 6.818 5.578 0.62 
91 91 1 6.818 3.099 0.62 
92 92 1 1.859 5.578 0.62 
93 93 1 1.859 0.62 5.578 
94 94 1 6.818 0.62 3.099 
95 95 1 6.818 0.62 5.578 
96 96 1 1.859 0.62 3.099 
97 97 1 0.62 3.099 6.818 
98 98 1 0.62 5.578 1.859 
99 99 1 0.62 3.099 1.859 
100 100 1 0.62 5.578 6.818 
101 101 1 3.099 1.859 0.62 
102 102 1 5.578 6.818 0.62 
103 103 1 3.099 6.818 0.62 
104 104 1 5.578 1.859 0.62 
105 105 1 0 1.24 3.719 
106 106 1 0 6.198 3.719 
107 107 1 3.719 0 1.24 
108 108 1 3.719 0 6.198 
109 109 1 1.24 3.719 0 
110 110 1 6.198 3.719 0 
111 111 1 1.24 0 3.719 
112 112 1 6.198 0 3.719 
113 113 1 0 3.719 6.198 
114 114 1 0 3.719 1.24 
115 115 1 3.719 1.24 0 
116 116 1 3.719 6.198 0 
117 117 1 0.62 1.859 4.339 
118 118 1 0.62 6.818 4.339 
119 119 1 4.339 0.62 1.859 
120 120 1 4.339 0.62 6.818 
121 121 1 1.859 4.339 0.62 
122 122 1 6.818 4.339 0.62 
123 123 1 1.859 0.62 4.339 
124 124 1 6.818 0.62 4.339 
125 125 1 0.62 4.339 6.818 
126 126 1 0.62 4.339 1.859 
127 127 1 4.339 1.859 0.62 
128 128 1 4.339 6.818 0.62 
129 129 1 0 2.479 2.479 
130 130 1 0 4.958 4.958 
131 131 1 0 4.958 2.479 
132 132 1 0 2.479 4.958 
133 133 1 2.479 0 2.479 
134 134 1 4.958 0 4.958 
135 135 1 2.479 0 4.958 
136 136 1 4.958 0 2.479 
137 137 1 2.479 2.479 0 
138 138 1 4.958 4.958 0 
139 139 1 4.958 2.479 0 
140 140 1 2.479 4.958 0 
141 141 1 0.62 3.099 3.099 
142 142 1 0.62 5.578 5.578 
143 143 1 0.62 5.578 3.099 
144 144 1 0.62 3.099 5.578 
145 145 1 3.099 0.62 3.099 
146 146 1 5.578 0.62 5.578 
147 147 1 3.099 0.62 5.578 
148 148 1 5.578 0.62 3.099 
149 149 1 3.099 3.099 0.62 
150 150 1 5.578 5.578 0.62 
151 151 1 5.578 3.099 0.62 
152 152 1 3.099 5.578 0.62 
153 153 1 0 2.479 3.719 
154 154 1 0 4.958 3.719 
155 155 1 3.719 0 2.479 
156 156 1 3.719 0 4.958 
157 157 1 2.479 3.719 0 
158 158 1 4.958 3.719 0 
159 159 1 2.479 0 3.719 
160 160 1 4.958 0 3.719 
161 161 1 0 3.719 4.958 
162 162 1 0 3.719 2.479 
163 163 1 3.719 2.479 0 
164 164 1 3.719 4.958 0 
165 165 1 0.62 3.099 4.339 
166 166 1 0.62 5.578 4.339 
167 167 1 4.339 0.62 3.099 
168 168 1 4.339 0.62 5.578 
169 169 1 3.099 4.339 0.62 
170 170 1 5.578 4.339 0.62 
171 171 1 3.099 0.62 4.339 
172 172 1 5.578 0.62 4.339 
173 173 1 0.62 4.339 5.578 
174 174 1 0.62 4.339 3.099 
175 175 1 4.339 3.099 0.62 
176 176 1 4.339 5.578 0.62 
177 177 1 0 3.719 3.719 
178 178 1 3.719 0 3.719 
179 179 1 3.719 3.719 0 
180 180 1 0.62 4.339 4.339 
181 181 1 4.339 0.62 4.339 
182 182 1 4.339 4.339 0.62 
183 183 1 1.24 1.24 1.24 
184 184 1 6.198 6.198 6.198 
185 185 1 6.198 6.198 1.24 
186 186 1 1.24 1.24 6.198 
187 187 1 6.198 1.24 6.198 
188 188 1 1.24 6.198 1.24 
189 189 1 1.24 6.198 6.198 
190 190 1 6.198 1.24 1.24 
191 191 1 1.859 1.859 1.859 
192 192 1 6.818 6.818 6.818 
193 193 1 6.818 6.818 1.859 
194 194 1 1.859 1.859 6.818 
195 195 1 6.818 1.859 6.818 
196 196 1 1.859 6.818 1.859 
197 197 1 1.859 6.818 6.818 
198 198 1 6.818 1.859 1.859 
199 199 1 1.24 1.24 2.479 
200 200 1 6.198 6.198 4.958 
201 201 1 6.198 6.198 2.479 
202 202 1 1.24 1.24 4.958 
203 203 1 6.198 1.24 4.958 
204 204 1 1.24 6.198 2.479 
205 205 1 1.24 6.198 4.958 
206 206 1 6.198 1.24 2.479 
207 207 1 2.479 1.24 1.24 
208 208 1 4.958 6.198 6.198 
209 209 1 2.479 6.198 6.198 
210 210 1 4.958 1.24 1.24 
211 211 1 4.958 6.198 1.24 
212 212 1 2.479 1.24 6.198 
213 213 1 4.958 1.24 6.198 
214 214 1 2.479 6.198 1.24 
215 215 1 1.24 2.479 1.24 
216 216 1 6.198 4.958 6.198 
217 217 1 6.198 2.479 6.198 
218 218 1 1.24 4.958 1.24 
219 219 1 1.24 4.958 6.198 
220 220 1 6.198 2.479 1.24 
221 221 1 6.198 4.958 1.24 
222 222 1 1.24 2.479 6.198 
223 223 1 1.859 1.859 3.099 
224 224 1 6.818 6.818 5.578 
225 225 1 6.818 6.818 3.099 
226 226 1 1.859 1.859 5.578 
227 227 1 6.818 1.859 5.578 
228 228 1 1.859 6.818 3.099 
229 229 1 1.859 6.818 5.578 
230 230 1 6.818 1.859 3.099 
231 231 1 3.099 1.859 1.859 
232 232 1 5.578 6.818 6.818 
233 233 1 3.099 6.818 6.818 
234 234 1 5.578 1.859 1.859 
235 235 1 5.578 6.818 1.859 
236 236 1 3.099 1.859 6.818 
237 237 1 5.578 1.859 6.818 
238 238 1 3.099 6.818 1.859 
239 239 1 1.859 3.099 1.859 
240 240 1 6.818 5.578 6.818 
241 241 1 6.818 3.099 6.818 
242 242 1 1.859 5.578 1.859 
243 243 1 1.859 5.578 6.818 
244 244 1 6.818 3.099 1.859 
245 245 1 6.818 5.578 1.859 
246 246 1 1.859 3.099 6.818 
247 247 1 1.24 1.24 3.719 
248 248 1 6.198 6.198 3.719 
249 249 1 6.198 1.24 3.719 
250 250 1 1.24 6.198 3.719 
251 251 1 3.719 1.24 1.24 
252 252 1 3.719 6.198 6.198 
253 253 1 3.719 6.198 1.24 
254 254 1 3.719 1.24 6.198 
255 255 1 1.24 3.719 1.24 
256 256 1 6.198 3.719 6.198 
257 257 1 1.24 3.719 6.198 
258 258 1 6.198 3.719 1.24 
259 259 1 1.859 1.859 4.339 
260 260 1 6.818 6.818 4.339 
261 261 1 6.818 1.859 4.339 
262 262 1 1.859 6.818 4.339 
263 263 1 4.339 1.859 1.859 
264 264 1 4.339 6.818 6.818 
265 265 1 4.339 6.818 1.859 
266 266 1 4.339 1.859 6.818 
267 267 1 1.859 4.339 1.859 
268 268 1 6.818 4.339 6.818 
269 269 1 1.859 4.339 6.818 
270 270 1 6.818 4.339 1.859 
271 271 1 1.24 2.479 2.479 
272 272 1 6.198 4.958 4.958 
273 273 1 6.198 4.958 2.479 
274 274 1 1.24 2.479 4.958 
275 275 1 6.198 2.479 4.958 
276 276 1 1.24 4.958 2.479 
277 277 1 1.24 4.958 4.958 
278 278 1 6.198 2.479 2.479 
279 279 1 2.479 1.24 2.479 
280 280 1 4.958 6.198 4.958 
281 281 1 2.479 6.198 4.958 
282 282 1 4.958 1.24 2.479 
283 283 1 4.958 6.198 2.479 
284 284 1 2.479 1.24 4.958 
285 285 1 4.958 1.24 4.958 
286 286 1 2.479 6.198 2.479 
287 287 1 2.479 2.479 1.24 
288 288 1 4.958 4.958 6.198 
289 289 1 4.958 2.479 6.198 
290 290 1 2.479 4.958 1.24 
291 291 1 2.479 4.958 6.198 
292 292 1 4.958 2.479 1.24 
293 293 1 4.958 4.958 1.24 
294 294 1 2.479 2.479 6.198 
295 295 1 1.859 3.099 3.099 
296 296 1 6.818 5.578 5.578 
297 297 1 6.818 5.578 3.099 
298 298 1 1.859 3.099 5.578 
299 299 1 6.818 3.099 5.578 
300 300 1 1.859 5.578 3.099 
301 301 1 1.859 5.578 5.578 
302 302 1 6.818 3.099 3.099 
303 303 1 3.099 1.859 3.099 
304 304 1 5.578 6.818 5.578 
305 305 1 3.099 6.818 5.578 
306 306 1 5.578 1.859 3.099 
307 307 1 5.578 6.818 3.099 
308 308 1 3.099 1.859 5.578 
309 309 1 5.578 1.859 5.578 
310 310 1 3.099 6.818 3.099 
311 311 1 3.099 3.099 1.859 
312 312 1 5.578 5.578 6.818 
313 313 1 5.578 3.099 6.818 
314 314 1 3.099 5.578 1.859 
315 315 1 3.099 5.578 6.818 
316 316 1 5.578 3.099 1.859 
317 317 1 5.578 5.578 1.859 
318 318 1 3.099 3.099 6.818 
319 319 1 1.24 2.479 3.719 
320 320 1 6.198 4.958 3.719 
321 321 1 6.198 2.479 3.719 
322 322 1 1.24 4.958 3.719 
323 323 1 3.719 1.24 2.479 
324 324 1 3.719 6.198 4.958 
325 325 1 3.719 6.198 2.479 
326 326 1 3.719 1.24 4.958 
327 327 1 2.479 3.719 1.24 
328 328 1 4.958 3.719 6.198 
329 329 1 2.479 3.719 6.198 
330 330 1 4.958 3.719 1.24 
331 331 1 2.479 1.24 3.719 
332 332 1 4.958 6.198 3.719 
333 333 1 2.479 6.198 3.719 
334 334 1 4.958 1.24 3.719 
335 335 1 1.24 3.719 4.958 
336 336 1 6.198 3.719 2.479 
337 337 1 6.198 3.719 4.958 
338 338 1 1.24 3.719 2.479 
339 339 1 3.719 2.479 6.198 
340 340 1 3.719 4.958 1.24 
341 341 1 3.719 2.479 1.24 
342 342 1 3.719 4.958 6.198 
343 343 1 1.859 3.099 4.339 
344 344 1 6.818 5.578 4.339 
345 345 1 6.818 3.099 4.339 
346 346 1 1.859 5.578 4.339 
347 347 1 4.339 1.859 3.099 
348 348 1 4.339 6.818 5.578 
349 349 1 4.339 6.818 3.099 
350 350 1 4.339 1.859 5.578 
351 351 1 3.099 4.339 1.859 
352 352 1 5.578 4.339 6.818 
353 353 1 3.099 4.339 6.818 
354 354 1 5.578 4.339 1.859 
355 355 1 3.099 1.859 4.339 
356 356 1 5.578 6.818 4.339 
357 357 1 3.099 6.818 4.339 
358 358 1 5.578 1.859 4.339 
359 359 1 1.859 4.339 5.578 
360 360 1 6.818 4.339 3.099 
361 361 1 6.818 4.339 5.578 
362 362 1 1.859 4.339 3.099 
363 363 1 4.339 3.099 6.818 
364 364 1 4.339 5.578 1.859 
365 365 1 4.339 3.099 1.859 
366 366 1 4.339 5.578 6.818 
367 367 1 1.24 3.719 3.719 
368 368 1 6.198 3.719 3.719 
369 369 1 3.719 1.24 3.719 
370 370 1 3.719 6.198 3.719 
371 371 1 3.719 3.719 1.24 
372 372 1 3.719 3.719 6.198 
373 373 1 1.859 4.339 4.339 
374 374 1 6.818 4.339 4.339 
375 375 1 4.339 1.859 4.339 
376 376 1 4.339 6.818 4.339 
377 377 1 4.339 4.339 1.859 
378 378 1 4.339 4.339 6.818 
379 379 1 2.479 2.479 2.479 
380 380 1 4.958 4.958 4.958 
381 381 1 4.958 4.958 2.479 
382 382 1 2.479 2.479 4.958 
383 383 1 4.958 2.479 4.958 
384 384 1 2.479 4.958 2.479 
385 385 1 2.479 4.958 4.958 
386 386 1 4.958 2.479 2.479 
387 387 1 3.099 3.099 3.099 
388 388 1 5.578 5.578 5.578 
389 389 1 5.578 5.578 3.099 
390 390 1 3.099 3.099 5.578 
391 391 1 5.578 3.099 5.578 
392 392 1 3.099 5.578 3.099 
393 393 1 3.099 5.578 5.578 
394 394 1 5.578 3.099 3.099 
395 395 1 2.479 2.479 3.719 
396 396 1 4.958 4.958 3.719 
397 397 1 4.958 2.479 3.719 
398 398 1 2.479 4.958 3.719 
399 399 1 3.719 2.479 2.479 
400 400 1 3.719 4.958 4.958 
401 401 1 3.719 4.958 2.479 
402 402 1 3.719 2.479 4.958 
403 403 1 2.479 3.719 2.479 
404 404 1 4.958 3.719 4.958 
405 405 1 2.479 3.719 4.958 
406 406 1 4.958 3.719 2.479 
407 407 1 3.099 3.099 4.339 
408 408 1 5.578 5.578 4.339 
409 409 1 5.578 3.099 4.339 
410 410 1 3.099 5.578 4.339 
411 411 1 4.339 3.099 3.099 
412 412 1 4.339 5.578 5.578 
413 413 1 4.339 5.578 3.099 
414 414 1 4.339 3.099 5.578 
415 415 1 3.099 4.339 3.099 
416 416 1 5.578 4.339 5.578 
417 417 1 3.099 4.339 5.578 
418 418 1 5.578 4.339 3.099 
419 419 1 2.479 3.719 3.719 
420 420 1 4.958 3.719 3.719 
421 421 1 3.719 2.479 3.719 
422 422 1 3.719 4.958 3.719 
423 423 1 3.719 3.719 2.479 
424 424 1 3.719 3.719 4.958 
425 425 1 3.099 4.339 4.339 
426 426 1 5.578 4.339 4.339 
427 427 1 4.339 3.099 4.339 
428 428 1 4.339 5.578 4.339 
429 429 1 4.339 4.339 3.099 
430 430 1 4.339 4.339 5.578 
431 431 1 3.719 3.719 3.719 
432 432 1 4.339 4.339 4.339 
ITEM: TIMESTEP
5000
ITEM: NUMBER OF ATOMS
432
ITEM: BOX BOUNDS pp pp pp
-3.1478106124605709e-01 7.1327810612460638e+00
-3.1478106124605709e-01 7.1327810612460638e+00
-3.1478106124605709e-01 7.1327810612460638e+00
ITEM: ATOMS id mol type x y z 
1 1 1 -0.00438014 -0.00438014 -0.00438014 
2 2 1 0.616421 0.616421 0.616421 
3 3 1 -0.00438014 -0.00438014 1.23698 
4 4 1 -0.00438014 -0.00438014 6.20158 
5 5 1 1.23698 -0.00438014 -0.00438014 
6 6 1 6.20158 -0.00438014 -0.00438014 
7 7 1 -0.00438014 1.23698 -0.00438014 
8 8 1 -0.00438014 6.20158 -0.00438014 
9 9 1 0.616421 0.616421 1.85724 
10 10 1 0.616421 0.616421 6.82238 
11 11 1 1.85724 0.616421 0.616421 
12 12 1 6.82238 0.616421 0.616421 
13 13 1 0.616421 1.85724 0.616421 
14 14 1 0.616421 6.82238 0.616421 
15 15 1 -0.00438014 -0.00438014 2.4778 
16 16 1 -0.00438014 -0.00438014 4.96022 
17 17 1 2.4778 -0.00438014 -0.00438014 
18 18 1 4.96022 -0.00438014 -0.00438014 
19 19 1 -0.00438014 2.4778 -0.00438014 
20 20 1 -0.00438014 4.96022 -0.00438014 
21 21 1 0.616421 0.616421 3.0986 
22 22 1 0.616421 0.616421 5.58078 
23 23 1 3.0986 0.616421 0.616421 
24 24 1 5.58078 0.616421 0.616421 
25 25 1 0.616421 3.0986 0.616421 
26 26 1 0.616421 5.58078 0.616421 
27 27 1 -0.00438014 -0.00438014 3.7194 
28 28 1 3.7194 -0.00438014 -0.00438014 
29 29 1 -0.00438014 3.7194 -0.00438014 
30 30 1 0.616421 0.616421 4.33997 
31 31 1 4.33997 0.616421 0.616421 
32 32 1 0.616421 4.33997 0.616421 
33 33 1 -0.00438014 1.23698 1.23698 
34 34 1 -0.00438014 6.20158 6.20158 
35 35 1 -0.00438014 6.20158 1.23698 
36 36 1 -0.00438014 1.23698 6.20158 
37 37 1 1.23698 -0.00438014 1.23698 
38 38 1 6.20158 -0.00438014 6.20158 
39 39 1 1.23698 -0.00438014 6.20158 
40 40 1 6.20158 -0.00438014 1.23698 
41 41 1 1.23698 1.23698 -0.00438014 
42 42 1 6.20158 6.20158 -0.00438014 
43 43 1 6.20158 1.23698 -0.00438014 
44 44 1 1.23698 6.20158 -0.00438014 
45 45 1 0.616421 1.85724 1.85724 
46 46 1 0.616421 6.82238 6.82238 
47 47 1 0.616421 6.82238 1.85724 
48 48 1 0.616421 1.85724 6.82238 
49 49 1 1.85724 0.616421 1.85724 
50 50 1 6.82238 0.616421 6.82238 
51 51 1 1.85724 0.616421 6.82238 
52 52 1 6.82238 0.616421 1.85724 
53 53 1 1.85724 1.85724 0.616421 
54 54 1 6.82238 6.82238 0.616421 
55 55 1 6.82238 1.85724 0.616421 
56 56 1 1.85724 6.82238 0.616421 
57 57 1 -0.00438014 1.23698 2.4778 
58 58 1 -0.00438014 6.20158 4.96022 
59 59 1 -0.00438014 6.20158 2.4778 
60 60 1 -0.00438014 1.23698 4.96022 
61 61 1 2.4778 -0.00438014 1.23698 
62 62 1 4.96022 -0.00438014 6.20158 
63 63 1 2.4778 -0.00438014 6.20158 
64 64 1 4.96022 -0.00438014 1.23698 
65 65 1 1.23698 2.4778 -0.00438014 
66 66 1 6.20158 4.96022 -0.00438014 
67 67 1 6.20158 2.4778 -0.00438014 
68 68 1 1.23698 4.96022 -0.00438014 
69 69 1 1.23698 -0.00438014 4.96022 
70 70 1 6.20158 -0.00438014 2.4778 
71 71 1 6.20158 -0.00438014 4.96022 
72 72 1 1.23698 -0.00438014 2.4778 
73 73 1 -0.00438014 2.4778 6.20158 
74 74 1 -0.00438014 4.96022 1.23698 
75 75 1 -0.00438014 2.4778 1.23698 
76 76 1 -0.00438014 4.96022 6.20158 
77 77 1 2.4778 1.23698 -0.00438014 
78 78 1 4.96022 6.20158 -0.00438014 
79 79 1 2.4778 6.20158 -0.00438014 
80 80 1 4.96022 1.23698 -0.00438014 
81 81 1 0.616421 1.85724 3.0986 
82 82 1 0.616421 6.82238 5.58078 
83 83 1 0.616421 6.82238 3.0986 
84 84 1 0.616421 1.85724 5.58078 
85 85 1 3.0986 0.616421 1.85724 
86 86 1 5.58078 0.616421 6.82238 
87 87 1 3.0986 0.616421 6.82238 
88 88 1 5.58078 0.616421 1.85724 
89 89 1 1.85724 3.0986 0.616421 
90 90 1 6.82238 5.58078 0.616421 
91 91 1 6.82238 3.0986 0.616421 
92 92 1 1.85724 5.58078 0.616421 
93 93 1 1.85724 0.616421 5.58078 
94 94 1 6.82238 0.616421 3.0986 
95 95 1 6.82238 0.616421 5.58078 
96 96 1 1.85724 0.616421 3.0986 
97 97 1 0.616421 3.0986 6.82238 
98 98 1 0.616421 5.58078 1.85724 
99 99 1 0.616421 3.0986 1.85724 
100 100 1 0.616421 5.58078 6.82238 
101 101 1 3.0986 1.85724 0.616421 
102 102 1 5.58078 6.82238 0.616421 
103 103 1 3.0986 6.82238 0.616421 
104 104 1 5.58078 1.85724 0.616421 
105 105 1 -0.00438014 1.23698 3.7194 
106 106 1 -0.00438014 6.20158 3.7194 
107 107 1 3.7194 -0.00438014 1.23698 
108 108 1 3.7194 -0.00438014 6.20158 
109 109 1 1.23698 3.7194 -0.00438014 
110 110 1 6.20158 3.7194 -0.00438014 
111 111 1 1.23698 -0.00438014 3.7194 
112 112 1 6.20158 -0.00438014 3.7194 
113 113 1 -0.00438014 3.7194 6.20158 
114 114 1 -0.00438014 3.7194 1.23698 
115 115 1 3.7194 1.23698 -0.00438014 
116 116 1 3.7194 6.20158 -0.00438014 
117 117 1 0.616421 1.85724 4.33996 
118 118 1 0.616421 6.82238 4.33997 
119 119 1 4.33996 0.616421 1.85724 
120 120 1 4.33997 0.616421 6.82238 
121 121 1 1.85724 4.33996 0.616421 
122 122 1 6.82238 4.33997 0.616421 
123 123 1 1.85724 0.616421 4.33996 
124 124 1 6.82238 0.616421 4.33997 
125 125 1 0.616421 4.33997 6.82238 
126 126 1 0.616421 4.33996 1.85724 
127 127 1 4.33996 1.85724 0.616421 
128 128 1 4.33997 6.82238 0.616421 
129 129 1 -0.00438014 2.4778 2.4778 
130 130 1 -0.00438014 4.96022 4.96022 
131 131 1 -0.00438014 4.96022 2.4778 
132 132 1 -0.00438014 2.4778 4.96022 
133 133 1 2.4778 -0.00438014 2.4778 
134 134 1 4.96022 -0.00438014 4.96022 
135 135 1 2.4778 -0.00438014 4.96022 
136 136 1 4.96022 -0.00438014 2.4778 
137 137 1 2.4778 2.4778 -0.00438014 
138 138 1 4.96022 4.96022 -0.00438014 
139 139 1 4.96022 2.4778 -0.00438014 
140 140 1 2.4778 4.96022 -0.00438014 
141 141 1 0.616421 3.0986 3.0986 
142 142 1 0.616421 5.58078 5.58078 
143 143 1 0.616421 5.58078 3.0986 
144 144 1 0.616421 3.0986 5.58078 
145 145 1 3.0986 0.616421 3.0986 
146 146 1 5.58078 0.616421 5.58078 
147 147 1 3.0986 0.616421 5.58078 
148 148 1 5.58078 0.616421 3.0986 
149 149 1 3.0986 3.0986 0.616421 
150 150 1 5.58078 5.58078 0.616421 
151 151 1 5.58078 3.0986 0.616421 
152 152 1 3.0986 5.58078 0.616421 
153 153 1 -0.00438014 2.4778 3.7194 
154 154 1 -0.00438014 4.96022 3.7194 
155 155 1 3.7194 -0.00438014 2.4778 
156 156 1 3.7194 -0.00438014 4.96022 
157 157 1 2.4778 3.7194 -0.00438014 
158 158 1 4.96022 3.7194 -0.00438014 
159 159 1 2.4778 -0.00438014 3.7194 
160 160 1 4.96022 -0.00438014 3.7194 
161 161 1 -0.00438014 3.7194 4.96022 
162 162 1 -0.00438014 3.7194 2.4778 
163 163 1 3.7194 2.4778 -0.00438014 
164 164 1 3.7194 4.96022 -0.00438014 
165 165 1 0.616421 3.0986 4.33997 
166 166 1 0.616421 5.58078 4.33997 
167 167 1 4.33997 0.616421 3.0986 
168 168 1 4.33997 0.616421 5.58078 
169 169 1 3.0986 4.33997 0.616421 
170 170 1 5.58078 4.33997 0.616421 
171 171 1 3.0986 0.616421 4.33997 
172 172 1 5.58078 0.616421 4.33997 
173 173 1 0.616421 4.33997 5.58078 
174 174 1 0.616421 4.33997 3.0986 
175 175 1 4.33997 3.0986 0.616421 
176 176 1 4.33997 5.58078 0.616421 
177 177 1 -0.00438014 3.7194 3.7194 
178 178 1 3.7194 -0.00438014 3.7194 
179 179 1 3.7194 3.7194 -0.00438014 
180 180 1 0.616421 4.33996 4.33996 
181 181 1 4.33996 0.616421 4.33996 
182 182 1 4.33996 4.33996 0.616421 
183 183 1 1.23698 1.23698 1.23698 
184 184 1 6.20158 6.20158 6.20158 
185 185 1 6.20158 6.20158 1.23698 
186 186 1 1.23698 1.23698 6.20158 
187 187 1 6.20158 1.23698 6.20158 
188 188 1 1.23698 6.20158 1.23698 
189 189 1 1.23698 6.20158 6.20158 
190 190 1 6.20158 1.23698 1.23698 
191 191 1 1.85724 1.85724 1.85724 
192 192 1 6.82238 6.82238 6.82238 
193 193 1 6.82238 6.82238 1.85724 
194 194 1 1.85724 1.85724 6.82238 
195 195 1 6.82238 1.85724 6.82238 
196 196 1 1.85724 6.82238 1.85724 
197 197 1 1.85724 6.82238 6.82238 
198 198 1 6.82238 1.85724 1.85724 
199 199 1 1.23698 1.23698 2.4778 
200 200 1 6.20158 6.20158 4.96022 
201 201 1 6.20158 6.20158 2.4778 
202 202 1 1.23698 1.23698 4.96022 
203 203 1 6.20158 1.23698 4.96022 
204 204 1 1.23698 6.20158 2.4778 
205 205 1 1.23698 6.20158 4.96022 
206 206 1 6.20158 1.23698 2.4778 
207 207 1 2.4778 1.23698 1.23698 
208 208 1 4.96022 6.20158 6.20158 
209 209 1 2.4778 6.20158 6.20158 
210 210 1 4.96022 1.23698 1.23698 
211 211 1 4.96022 6.20158 1.23698 
212 212 1 2.4778 1.23698 6.20158 
213 213 1 4.96022 1.23698 6.20158 
214 214 1 2.4778 6.20158 1.23698 
215 215 1 1.23698 2.4778 1.23698 
216 216 1 6.20158 4.96022 6.20158 
217 217 1 6.20158 2.4778 6.20158 
218 218 1 1.23698 4.96022 1.23698 
219 219 1 1.23698 4.96022 6.20158 
220 220 1 6.20158 2.4778 1.23698 
221 221 1 6.20158 4.96022 1.23698 
222 222 1 1.23698 2.4778 6.20158 
223 223 1 1.85724 1.85724 3.0986 
224 224 1 6.82238 6.82238 5.58078 
225 225 1 6.82238 6.82238 3.0986 
226 226 1 1.85724 1.85724 5.58078 
227 227 1 6.82238 1.85724 5.58078 
228 228 1 1.85724 6.82238 3.0986 
229 229 1 1.85724 6.82238 5.58078 
230 230 1 6.82238 1.85724 3.0986 
231 231 1 3.0986 1.85724 1.85724 
232 232 1 5.58078 6.82238 6.82238 
233 233 1 3.0986 6.82238 6.82238 
234 234 1 5.58078 1.85724 1.85724 
235 235 1 5.58078 6.82238 1.85724 
236 236 1 3.0986 1.85724 6.82238 
237 237 1 5.58078 1.85724 6.82238 
238 238 1 3.0986 6.82238 1.85724 
239 239 1 1.85724 3.0986 1.85724 
240 240 1 6.82238 5.58078 6.82238 
241 241 1 6.82238 3.0986 6.82238 
242 242 1 1.85724 5.58078 1.85724 
243 243 1 1.85724 5.58078 6.82238 
244 244 1 6.82238 3.0986 1.85724 
245 245 1 6.82238 5.58078 1.85724 
246 246 1 1.85724 3.0986 6.82238 
247 247 1 1.23698 1.23698 3.7194 
248 248 1 6.20158 6.20158 3.7194 
249 249 1 6.20158 1.23698 3.7194 
250 250 1 1.23698 6.20158 3.7194 
251 251 1 3.7194 1.23698 1.23698 
252 252 1 3.7194 6.20158 6.20158 
253 253 1 3.7194 6.20158 1.23698 
254 254 1 3.7194 1.23698 6.20158 
255 255 1 1.23698 3.7194 1.23698 
256 256 1 6.20158 3.7194 6.20158 
257 257 1 1.23698 3.7194 6.20158 
258 258 1 6.20158 3.7194 1.23698 
259 259 1 1.85724 1.85724 4.33996 
260 260 1 6.82238 6.82238 4.33997 
261 261 1 6.82238 1.85724 4.33996 
262 262 1 1.85724 6.82238 4.33996 
263 263 1 4.33996 1.85724 1.85724 
264 264 1 4.33997 6.82238 6.82238 
265 265 1 4.33996 6.82238 1.85724 
266 266 1 4.33996 1.85724 6.82238 
267 267 1 1.85724 4.33996 1.85724 
268 268 1 6.82238 4.33997 6.82238 
269 269 1 1.85724 4.33996 6.82238 
270 270 1 6.82238 4.33996 1.85724 
271 271 1 1.23698 2.4778 2.4778 
272 272 1 6.20158 4.96022 4.96022 
273 273 1 6.20158 4.96022 2.4778 
274 274 1 1.23698 2.4778 4.96022 
275 275 1 6.20158 2.4778 4.96022 
276 276 1 1.23698 4.96022 2.4778 
277 277 1 1.23698 4.96022 4.96022 
278 278 1 6.20158 2.4778 2.4778 
279 279 1 2.4778 1.23698 2.4778 
280 280 1 4.96022 6.20158 4.96022 
281 281 1 2.4778 6.20158 4.96022 
282 282 1 4.96022 1.23698 2.4778 
283 283 1 4.96022 6.20158 2.4778 
284 284 1 2.4778 1.23698 4.96022 
285 285 1 4.96022 1.23698 4.96022 
286 286 1 2.4778 6.20158 2.4778 
287 287 1 2.4778 2.4778 1.23698 
288 288 1 4.96022 4.96022 6.20158 
289 289 1 4.96022 2.4778 6.20158 
290 290 1 2.4778 4.96022 1.23698 
291 291 1 2.4778 4.96022 6.20158 
292 292 1 4.96022 2.4778 1.23698 
293 293 1 4.96022 4.96022 1.23698 
294 294 1 2.4778 2.4778 6.20158 
295 295 1 1.85724 3.0986 3.0986 
296 296 1 6.82238 5.58078 5.58078 
297 297 1 6.82238 5.58078 3.0986 
298 298 1 1.85724 3.0986 5.58078 
299 299 1 6.82238 3.0986 5.58078 
300 300 1 1.85724 5.58078 3.0986 
301 301 1 1.85724 5.58078 5.58078 
302 302 1 6.82238 3.0986 3.0986 
303 303 1 3.0986 1.85724 3.0986 
304 304 1 5.58078 6.82238 5.58078 
305 305 1 3.0986 6.82238 5.58078 
306 306 1 5.58078 1.85724 3.0986 
307 307 1 5.58078 6.82238 3.0986 
308 308 1 3.0986 1.85724 5.58078 
309 309 1 5.58078 1.85724 5.58078 
310 310 1 3.0986 6.82238 3.0986 
311 311 1 3.0986 3.0986 1.85724 
312 312 1 5.58078 5.58078 6.82238 
313 313 1 5.58078 3.0986 6.82238 
314 314 1 3.0986 5.58078 1.85724 
315 315 1 3.0986 5.58078 6.82238 
316 316 1 5.58078 3.0986 1.85724 
317 317 1 5.58078 5.58078 1.85724 
318 318 1 3.0986 3.0986 6.82238 
319 319 1 1.23698 2.4778 3.7194 
320 320 1 6.20158 4.96022 3.7194 
321 321 1 6.20158 2.4778 3.7194 
322 322 1 1.23698 4.96022 3.7194 
323 323 1 3.7194 1.23698 2.4778 
324 324 1 3.7194 6.20158 4.96022 
325 325 1 3.7194 6.20158 2.4778 
326 326 1 3.7194 1.23698 4.96022 
327 327 1 2.4778 3.7194 1.23698 
328 328 1 4.96022 3.7194 6.20158 
329 329 1 2.4778 3.7194 6.20158 
330 330 1 4.96022 3.7194 1.23698 
331 331 1 2.4778 1.23698 3.7194 
332 332 1 4.96022 6.20158 3.7194 
333 333 1 2.4778 6.20158 3.7194 
334 334 1 4.96022 1.23698 3.7194 
335 335 1 1.23698 3.7194 4.96022 
336 336 1 6.20158 3.7194 2.4778 
337 337 1 6.20158 3.7194 4.96022 
338 338 1 1.23698 3.7194 2.4778 
339 339 1 3.7194 2.4778 6.20158 
340 340 1 3.7194 4.96022 1.23698 
341 341 1 3.7194 2.4778 1.23698 
342 342 1 3.7194 4.96022 6.20158 
343 343 1 1.85724 3.0986 4.33996 
344 344 1 6.82238 5.58078 4.33997 
345 345 1 6.82238 3.0986 4.33997 
346 346 1 1.85724 5.58078 4.33996 
347 347 1 4.33996 1.85724 3.0986 
348 348 1 4.33997 6.82238 5.58078 
349 349 1 4.33997 6.82238 3.0986 
350 350 1 4.33996 1.85724 5.58078 
351 351 1 3.0986 4.33996 1.85724 
352 352 1 5.58078 4.33997 6.82238 
353 353 1 3.0986 4.33997 6.82238 
354 354 1 5.58078 4.33996 1.85724 
355 355 1 3.0986 1.85724 4.33996 
356 356 1 5.58078 6.82238 4.33997 
357 357 1 3.0986 6.82238 4.33997 
358 358 1 5.58078 1.85724 4.33996 
359 359 1 1.85724 4.33996 5.58078 
360 360 1 6.82238 4.33997 3.0986 
361 361 1 6.82238 4.33997 5.58078 
362 362 1 1.85724 4.33996 3.0986 
363 363 1 4.33997 3.0986 6.82238 
364 364 1 4.33996 5.58078 1.85724 
365 365 1 4.33996 3.0986 1.85724 
366 366 1 4.33997 5.58078 6.82238 
367 367 1 1.23698 3.7194 3.7194 
368 368 1 6.20158 3.7194 3.7194 
369 369 1 3.7194 1.23698 3.7194 
370 370 1 3.7194 6.20158 3.7194 
371 371 1 3.7194 3.7194 1.23698 
372 372 1 3.7194 3.7194 6.20158 
373 373 1 1.85724 4.33996 4.33996 
374 374 1 6.82238 4.33996 4.33996 
375 375 1 4.33996 1.85724 4.33996 
376 376 1 4.33996 6.82238 4.33996 
377 377 1 4.33996 4.33996 1.85724 
378 378 1 4.33996 4.33996 6.82238 
379 379 1 2.4778 2.4778 2.4778 
380 380 1 4.96022 4.96022 4.96022 
381 381 1 4.96022 4.96022 2.4778 
382 382 1 2.4778 2.4778 4.96022 
383 383 1 4.96022 2.4778 4.96022 
384 384 1 2.4778 4.96022 2.4778 
385 385 1 2.4778 4.96022 4.96022 
386 386 1 4.96022 2.4778 2.4778 
387 387 1 3.0986 3.0986 3.0986 
388 388 1 5.58078 5.58078 5.58078 
389 389 1 5.58078 5.58078 3.0986 
390 390 1 3.0986 3.0986 5.58078 
391 391 1 5.58078 3.0986 5.58078 
392 392 1 3.0986 5.58078 3.0986 
393 393 1 3.0986 5.58078 5.58078 
394 394 1 5.58078 3.0986 3.0986 
395 395 1 2.4778 2.4778 3.7194 
396 396 1 4.96022 4.96022 3.7194 
397 397 1 4.96022 2.4778 3.7194 
398 398 1 2.4778 4.96022 3.7194 
399 399 1 3.7194 2.4778 2.4778 
400 400 1 3.7194 4.96022 4.96022 
401 401 1 3.7194 4.96022 2.4778 
402 402 1 3.7194 2.4778 4.96022 
403 403 1 2.4778 3.7194 2.4778 
404 404 1 4.96022 3.7194 4.96022 
405 405 1 2.4778 3.7194 4.96022 
406 406 1 4.96022 3.7194 2.4778 
407 407 1 3.0986 3.0986 4.33997 
408 408 1 5.58078 5.58078 4.33997 
409 409 1 5.58078 3.0986 4.33997 
410 410 1 3.0986 5.58078 4.33997 
411 411 1 4.33997 3.0986 3.0986 
412 412 1 4.33997 5.58078 5.58078 
413 413 1 4.33997 5.58078 3.0986 
414 414 1 4.33997 3.0986 5.58078 
415 415 1 3.0986 4.33997 3.0986 
416 416 1 5.58078 4.33997 5.58078 
417 417 1 3.0986 4.33997 5.58078 
418 418 1 5.58078 4.33997 3.0986 
419 419 1 2.4778 3.7194 3.7194 
420 420 1 4.96022 3.7194 3.7194 
421 421 1 3.7194 2.4778 3.7194 
422 422 1 3.7194 4.96022 3.7194 
423 423 1 3.7194 3.7194 2.4778 
424 424 1 3.7194 3.7194 4.96022 
425 425 1 3.0986 4.33996 4.33996 
426 426 1 5.58078 4.33996 4.33996 
427 427 1 4.33996 3.0986 4.33996 
428 428 1 4.33996 5.58078 4.33996 
429 429 1 4.33996 4.33996 3.0986 
430 430 1 4.33996 4.33996 5.58078 
431 431 1 3.7194 3.7194 3.7194 
432 432 1 4.33996 4.33996 4.33996 
ITEM: TIMESTEP
10000
ITEM: NUMBER OF ATOMS
432
ITEM: BOX BOUNDS pp pp pp
-3.1463284462885799e-01 7.1326328446288212e+00
-3.1463284462885799e-01 7.1326328446288212e+00
-3.1463284462885799e-01 7.1326328446288212e+00
ITEM: ATOMS id mol type x y z 
1 1 1 -0.00424063 -0.00424063 -0.00424063 
2 2 1 0.61654 0.61654 0.61654 
3 3 1 -0.00424063 -0.00424063 1.23672 
4 4 1 -0.00424063 -0.00424063 6.20147 
5 5 1 1.23672 -0.00424063 -0.00424063 
6 6 1 6.20147 -0.00424063 -0.00424063 
7 7 1 -0.00424063 1.23672 -0.00424063 
8 8 1 -0.00424063 6.20147 -0.00424063 
9 9 1 0.61654 0.61654 1.85765 
10 10 1 0.61654 0.61654 6.82225 
11 11 1 1.85765 0.61654 0.61654 
12 12 1 6.82225 0.61654 0.61654 
13 13 1 0.61654 1.85765 0.61654 
14 14 1 0.61654 6.82225 0.61654 
15 15 1 -0.00424063 -0.00424063 2.47783 
16 16 1 -0.00424063 -0.00424063 4.96051 
17 17 1 2.47783 -0.00424063 -0.00424063 
18 18 1 4.96051 -0.00424063 -0.00424063 
19 19 1 -0.00424063 2.47783 -0.00424063 
20 20 1 -0.00424063 4.96051 -0.00424063 
21 21 1 0.61654 0.61654 3.09861 
22 22 1 0.61654 0.61654 5.58069 
23 23 1 3.09861 0.61654 0.61654 
24 24 1 5.58069 0.61654 0.61654 
25 25 1 0.61654 3.09861 0.61654 
26 26 1 0.61654 5.58069 0.61654 
27 27 1 -0.00424063 -0.00424063 3.7194 
28 28 1 3.7194 -0.00424063 -0.00424063 
29 29 1 -0.00424063 3.7194 -0.00424063 
30 30 1 0.61654 0.61654 4.33958 
31 31 1 4.33958 0.61654 0.61654 
32 32 1 0.61654 4.33958 0.61654 
33 33 1 -0.00424063 1.23672 1.23672 
34 34 1 -0.00424063 6.20147 6.20147 
35 35 1 -0.00424063 6.20147 1.23672 
36 36 1 -0.00424063 1.23672 6.20147 
37 37 1 1.23672 -0.00424063 1.23672 
38 38 1 6.20147 -0.00424063 6.20147 
39 39 1 1.23672 -0.00424063 6.20147 
40 40 1 6.20147 -0.00424063 1.23672 
41 41 1 1.23672 1.23672 -0.00424063 
42 42 1 6.20147 6.20147 -0.00424063 
43 43 1 6.20147 1.23672 -0.00424063 
44 44 1 1.23672 6.20147 -0.00424063 
45 45 1 0.61654 1.85765 1.85765 
46 46 1 0.61654 6.82225 6.82225 
47 47 1 0.61654 6.82225 1.85765 
48 48 1 0.61654 1.85765 6.82225 
49 49 1 1.85765 0.61654 1.85765 
50 50 1 6.82225 0.61654 6.82225 
51 51 1 1.85765 0.61654 6.82225 
52 52 1 6.82225 0.61654 1.85765 
53 53 1 1.85765 1.85765 0.61654 
54 54 1 6.82225 6.82225 0.61654 
55 55 1 6.82225 1.85765 0.61654 
56 56 1 1.85765 6.82225 0.61654 
57 57 1 -0.00424063 1.23672 2.47783 
58 58 1 -0.00424063 6.20147 4.96051 
59 59 1 -0.00424063 6.20147 2.47783 
60 60 1 -0.00424063 1.23672 4.96051 
61 61 1 2.47783 -0.00424063 1.23672 
62 62 1 4.96051 -0.00424063 6.20147 
63 63 1 2.47783 -0.00424063 6.20147 
64 64 1 4.96051 -0.00424063 1.23672 
65 65 1 1.23672 2.47783 -0.00424063 
66 66 1 6.20147 4.96051 -0.00424063 
67 67 1 6.20147 2.47783 -0.00424063 
68 68 1 1.23672 4.96051 -0.00424063 