ITEM: TIMESTEP
15000000
ITEM: NUMBER OF ATOMS
750
ITEM: BOX BOUNDS pp pp pp
-2.0000000000000000e+01 2.0000000000000000e+01
-2.0000000000000000e+01 2.0000000000000000e+01
7.0316731227034523e+00 1.8723432986906221e+02
ITEM: ATOMS id mol type x y z c_peratom 
1 1 2 1.62441 -0.745636 131.621 -28.449 
2 1 1 2.11159 -0.763153 132.444 9.60885 
3 1 1 0.727051 -0.969064 131.868 9.36579 
4 2 2 0.188934 -2.20953 85.1172 -28.0932 
5 2 1 0.23207 -2.77503 84.3461 8.69171 
6 2 1 -0.569442 -1.64701 84.9601 9.2199 
7 3 2 1.76683 -0.79489 171.047 -22.3287 
8 3 1 2.00161 -0.74271 170.121 4.7828 
9 3 1 1.72226 -1.73322 171.231 8.46963 
10 4 2 -0.222547 1.77086 142.796 -25.1801 
11 4 1 -0.193951 2.41348 142.087 7.61092 
12 4 1 -1.04315 1.29776 142.658 7.55067 
13 5 2 0.756486 1.89218 122.034 -21.0752 
14 5 1 1.19364 2.2907 121.282 7.8214 
15 5 1 1.18141 1.04044 122.135 4.88126 
16 6 2 -1.63035 -1.73272 128.172 -18.1885 
17 6 1 -1.60378 -1.99878 127.253 4.46513 
18 6 1 -1.96807 -0.837284 128.153 2.3721 
19 7 2 0.131866 2.48279 41.7219 -23.2826 
20 7 1 -0.712432 2.07327 41.9108 6.16379 
21 7 1 0.473393 2.73529 42.5797 7.01755 
22 8 2 -0.713955 -1.77449 107.913 -22.6807 
23 8 1 0.106275 -1.28148 107.893 4.83317 
24 8 1 -0.492398 -2.62437 107.533 7.85814 
25 9 2 1.7849 -0.169083 184.651 -27.1967 
26 9 1 2.63511 -0.187686 184.211 10.4451 
27 9 1 1.38729 -1.01388 184.44 8.5602 
28 10 2 -1.92187 0.988656 165.208 -13.0605 
29 10 1 -1.12887 1.31735 165.632 0.816537 
30 10 1 -1.8001 0.0398424 165.174 6.1208 
31 11 2 -0.81042 2.06505 81.9252 -25.8953 
32 11 1 -1.49417 1.43845 82.1621 10.3781 
33 11 1 -1.05992 2.37485 81.0546 6.26208 
34 12 2 0.894696 2.10429 44.6822 -22.8691 
35 12 1 0.911438 2.38426 45.5974 5.64458 
36 12 1 0.0736183 1.6202 44.5944 8.2468 
37 13 2 -1.86947 -0.698145 76.5387 -19.6051 
38 13 1 -1.00967 -1.11582 76.589 3.90865 
39 13 1 -2.21897 -0.760691 77.4276 4.53262 
40 14 2 2.0331 -0.203466 27.6 -26.8832 
41 14 1 1.42657 0.534153 27.5347 8.51825 
42 14 1 2.67163 -0.0515268 26.9033 7.79128 
43 15 2 -2.30378 0.422156 176.692 -23.2566 
44 15 1 -2.46433 0.571258 175.76 4.4833 
45 15 1 -1.73475 1.14511 176.956 9.66101 
46 16 2 -0.433667 -1.47062 41.7573 -25.8804 
47 16 1 0.389193 -0.984443 41.7047 7.10063 
48 16 1 -0.457797 -1.98932 40.9532 8.18296 
49 17 2 -0.120783 1.40671 105.049 -21.2586 
50 17 1 -0.00438366 1.90265 105.86 3.70621 
51 17 1 -0.900062 0.872951 105.204 4.87648 
52 18 2 2.14877 -0.432603 168.247 -20.431 
53 18 1 1.44898 -1.03192 167.987 4.84371 
54 18 1 1.69885 0.386634 168.453 4.65933 
55 19 2 0.437863 1.80653 13.0307 -23.0814 
56 19 1 0.631811 2.20159 13.8807 7.19225 
57 19 1 -0.374242 1.31993 13.1719 5.24473 
58 20 2 1.02666 1.86273 47.5483 -20.8759 
59 20 1 1.18242 2.3121 48.379 4.82883 
60 20 1 1.55204 1.06461 47.605 4.74786 
61 21 2 0.766144 2.15092 38.8046 -25.0034 
62 21 1 0.757465 2.62579 39.6357 7.35706 
63 21 1 1.43215 1.47354 38.9222 6.21224 
64 22 2 2.02056 -0.474518 105.042 -22.447 
65 22 1 1.47805 0.313119 105.081 6.70124 
66 22 1 1.39317 -1.19623 105 4.45363 
67 23 2 1.674 -1.02883 10.2878 -20.9602 
68 23 1 0.906462 -1.60067 10.2769 4.01311 
69 23 1 1.93062 -0.954171 9.36862 5.73876 
70 24 2 -0.263262 -1.7318 136.425 -18.7135 
71 24 1 -0.267564 -2.00619 135.508 0.812009 
72 24 1 0.342237 -0.990901 136.451 7.03164 
73 25 2 1.30589 2.00156 171.291 -21.3921 
74 25 1 1.38865 2.27965 170.379 4.80817 
75 25 1 1.51129 1.06677 171.277 6.19315 
76 26 2 1.97146 -0.377044 151.37 -21.3809 
77 26 1 2.32631 -0.483529 152.253 4.58073 
78 26 1 1.22095 -0.970398 151.34 6.12357 
79 27 2 -0.375334 -1.29718 154.266 -20.3467 
80 27 1 0.479913 -0.919264 154.061 7.16988 
81 27 1 -0.266669 -1.67874 155.137 3.02989 
82 28 2 -1.42144 -0.467392 79.3656 -16.698 
83 28 1 -1.82826 -0.651116 80.2124 3.23048 
84 28 1 -1.09987 0.430787 79.4437 2.34477 
85 29 2 -0.488359 2.03414 137.269 -26.6056 
86 29 1 -1.09965 1.30861 137.141 6.30497 
87 29 1 -0.590326 2.57406 136.485 10.0356 
88 30 2 1.94703 0.78078 81.972 -23.6764 
89 30 1 1.16423 1.33082 81.9418 8.02334 
90 30 1 1.95512 0.423282 82.8599 6.65355 
91 31 2 2.00496 -0.205005 42.0338 -29.3225 
92 31 1 1.66398 0.652377 41.7791 9.93033 
93 31 1 2.59979 -0.447191 41.324 8.93611 
94 32 2 1.75 0.245306 137.117 -23.8777 
95 32 1 1.86184 0.0142116 138.04 4.21714 
96 32 1 1.29318 1.08629 137.135 7.85472 
97 33 2 -0.439093 -1.88388 30.2526 -19.3926 
98 33 1 -0.364735 -2.26313 31.1283 4.58692 
99 33 1 -1.12109 -1.21753 30.3368 3.35129 
100 34 2 0.279415 1.99353 30.4821 -21.1301 
101 34 1 0.584774 2.53203 31.2121 6.81367 
102 34 1 0.894517 1.2608 30.4506 4.01656 
103 35 2 -0.187617 -2.51413 145.413 -18.9037 
104 35 1 -0.387822 -2.77881 146.311 7.57889 
105 35 1 0.446676 -1.80358 145.508 2.02083 
106 36 2 1.59831 1.7307 65.1743 -21.2228 
107 36 1 1.50336 1.85758 66.1183 3.96464 
108 36 1 1.75224 0.791438 65.0727 6.96891 
109 37 2 -0.347008 -1.6475 21.7376 -25.7515 
110 37 1 -0.802822 -0.825611 21.9192 8.61085 
111 37 1 -0.336017 -2.10644 22.5776 7.5474 
112 38 2 1.23396 1.56011 67.8822 -21.7494 
113 38 1 1.1331 0.644767 67.621 6.36434 
114 38 1 1.50129 1.51962 68.8004 4.88271 
115 39 2 -0.152073 -1.26852 176.265 -23.1286 
116 39 1 -1.04144 -0.924361 176.348 5.14842 
117 39 1 0.00975598 -1.71691 177.095 6.15154 
118 40 2 -1.64241 -0.881885 93.7102 -17.6647 
119 40 1 -0.783082 -1.30287 93.6866 1.86858 
120 40 1 -1.94467 -0.902281 92.8022 4.2029 
121 41 2 -1.77798 0.205471 13.273 -24.3989 
122 41 1 -1.35234 -0.648995 13.3434 5.98212 
123 41 1 -1.93886 0.317004 12.3361 6.73306 
124 42 2 2.29133 -0.713514 47.8163 -22.1889 
125 42 1 1.37692 -0.98482 47.7359 5.09769 
126 42 1 2.72931 -1.12151 47.0693 6.73003 
127 43 2 0.124497 1.96101 156.774 -19.6388 
128 43 1 -0.0405737 2.12442 155.845 3.05345 
129 43 1 0.759303 1.24464 156.782 5.68954 
130 44 2 2.01328 -0.622975 50.7794 -22.3845 
131 44 1 1.16286 -1.0623 50.7844 6.28101 
132 44 1 2.37261 -0.8055 49.9112 5.94729 
133 45 2 2.23988 0.0472581 154.117 -24.5492 
134 45 1 1.93474 0.954375 154.101 8.25173 
135 45 1 2.36466 -0.147485 155.046 6.11846 
136 46 2 -2.0767 0.155456 7.51886 -21.2291 
137 46 1 -2.40162 0.303217 186.833 5.21474 
138 46 1 -1.60929 -0.6783 7.46779 4.12827 
139 47 2 -0.525532 -1.20414 119.533 -27.278 
140 47 1 0.399512 -1.28762 119.302 6.25855 
141 47 1 -0.960855 -1.89618 119.036 10.9748 
142 48 2 1.95802 -0.000277435 159.717 -25.7741 
143 48 1 2.18037 0.0681619 160.646 4.69544 
144 48 1 1.39022 -0.768935 159.662 8.84982 
145 49 2 0.183598 -1.99293 166.932 -16.6974 
146 49 1 -0.511069 -2.19883 166.306 3.51892 
147 49 1 -0.201643 -2.1789 167.788 5.31544 
148 50 2 1.93734 1.02978 90.4634 -23.3023 
149 50 1 1.09609 1.47001 90.5848 5.31115 
150 50 1 2.42414 1.21692 91.2661 7.83091 
151 51 2 1.68162 -1.04967 62.3261 -25.2784 
152 51 1 2.05241 -1.33111 61.4897 8.2957 
153 51 1 0.759048 -1.29983 62.2759 4.15242 
154 52 2 0.829017 1.86702 131.2 -25.1769 
155 52 1 0.909649 2.13557 130.285 5.49536 
156 52 1 1.27301 1.02004 131.242 8.2632 
157 53 2 0.696194 -1.60555 90.5461 -22.7355 
158 53 1 0.835462 -1.9787 89.6757 4.49902 
159 53 1 1.17262 -0.775493 90.5304 6.21794 
160 54 2 2.29972 -0.93127 65.0467 -28.3847 
161 54 1 2.38865 -0.829434 64.0991 8.12503 
162 54 1 3.12358 -1.33249 65.3233 11.9527 
163 55 2 0.41762 1.45526 134 -24.2135 
164 55 1 0.702528 1.84313 133.173 7.64032 
165 55 1 1.10919 0.832477 134.224 5.96729 
166 56 2 0.714854 -1.82947 76.1469 -22.8534 
167 56 1 0.583999 -2.06285 75.2279 4.65071 
168 56 1 1.2989 -1.07154 76.1213 7.73517 
169 57 2 -2.2572 0.631706 124.931 -20.7372 
170 57 1 -2.53611 0.881901 125.812 5.98388 
171 57 1 -2.0878 -0.308479 124.991 4.18905 
172 58 2 0.0522483 1.32313 99.2755 -26.473 
173 58 1 0.834642 0.772562 99.2444 8.0238 
174 58 1 0.000539424 1.61557 100.185 6.80374 
175 59 2 -0.340704 -2.17559 13.0045 -25.5992 
176 59 1 0.558402 -1.85234 13.0624 6.03715 
177 59 1 -0.519199 -2.54462 13.8695 8.17554 
178 60 2 2.00792 0.738467 79.2295 -17.8151 
179 60 1 2.05233 0.94013 80.1642 3.62485 
180 60 1 1.88469 -0.210111 79.1943 2.73244 
181 61 2 -1.70041 0.906889 131.024 -22.8874 
182 61 1 -0.788624 1.19478 131.069 5.50503 
183 61 1 -2.05449 1.09551 131.893 7.98504 
184 62 2 1.78501 -0.275012 21.531 -18.1866 
185 62 1 1.04599 -0.87077 21.6541 4.91734 
186 62 1 1.91634 -0.248157 20.5832 3.26171 
187 63 2 -1.15639 -1.88439 125.294 -22.5673 
188 63 1 -1.20418 -2.38908 124.482 7.18919 
189 63 1 -0.23291 -1.64566 125.374 4.08738 
190 64 2 1.8437 -0.73478 7.43064 -23.5386 
191 64 1 1.35032 0.0839278 7.48093 4.38905 
192 64 1 2.11171 -0.797532 186.717 7.45839 
193 65 2 1.02667 1.83988 56.1344 -22.1624 
194 65 1 1.14772 0.903366 56.291 4.08975 
195 65 1 1.22963 2.25182 56.9742 7.92084 
196 66 2 1.79502 -0.57969 110.669 -25.4366 
197 66 1 1.42404 0.2983 110.581 8.96033 
198 66 1 2.40918 -0.508612 111.4 7.51829 
199 67 2 -1.72401 0.38023 182.204 -21.6566 
200 67 1 -2.15028 0.436222 181.349 4.67176 
201 67 1 -1.3018 -0.478823 182.206 5.70974 
202 68 2 1.53915 0.555393 73.6326 -23.7599 
203 68 1 2.01341 0.695664 74.4521 5.28029 
204 68 1 1.40747 -0.391776 73.5906 7.74026 
205 69 2 -0.729361 -1.60799 184.734 -20.1139 
206 69 1 -0.707012 -1.93035 185.635 5.74696 
207 69 1 -1.11915 -0.736288 184.801 3.60447 
208 70 2 -0.558138 -1.98829 148.651 -21.8121 
209 70 1 -1.22545 -1.31352 148.526 6.63349 
210 70 1 -0.95116 -2.60259 149.271 6.6709 
211 71 2 2.0036 -0.0713762 156.926 -28.5156 
212 71 1 2.24492 -0.00575991 157.85 6.12095 
213 71 1 1.40041 -0.81362 156.888 12.1314 
214 72 2 -0.459039 -1.48737 44.6663 -25.0287 
215 72 1 0.43738 -1.20175 44.8426 6.29134 
216 72 1 -0.444935 -1.77173 43.7524 6.9003 
217 73 2 -2.03208 0.354047 157.162 -25.0949 
218 73 1 -1.33725 1.01238 157.155 6.06223 
219 73 1 -2.61517 0.613856 156.448 7.62368 
220 74 2 1.56371 -0.156937 139.771 -28.2268 
221 74 1 0.973914 -0.910811 139.764 7.57091 
222 74 1 1.95252 -0.164352 140.645 8.17387 
223 75 2 -2.04403 0.553108 41.9186 -16.9516 
224 75 1 -1.59871 -0.268277 41.7107 3.72434 
225 75 1 -2.07116 0.575868 42.8752 3.47414 
226 76 2 -1.46002 1.60413 70.6334 -22.7049 
227 76 1 -1.74943 1.45202 69.7337 7.65697 
228 76 1 -0.523551 1.4064 70.6209 5.64504 
229 77 2 1.99017 0.0471751 18.811 -23.4398 
230 77 1 1.43924 0.826282 18.7355 7.06169 
231 77 1 2.32111 -0.0995823 17.9249 5.51494 
232 78 2 0.051194 1.75865 162.575 -19.449 
233 78 1 0.0277999 2.22996 161.742 4.41878 
234 78 1 -0.60655 1.06982 162.479 4.87391 
235 79 2 -0.885638 -2.09241 10.3332 -21.0054 
236 79 1 -0.865439 -2.44074 11.2246 4.28311 
237 79 1 -1.45085 -1.32195 10.3894 5.40772 
238 80 2 2.145 0.428548 33.2119 -22.0992 
239 80 1 1.62994 1.21199 33.0191 4.15819 
240 80 1 2.32933 0.0454786 32.3543 9.35674 
241 81 2 1.24032 1.12988 70.8012 -22.0678 
242 81 1 1.23248 0.188345 70.6289 4.63066 
243 81 1 1.36912 1.19972 71.7471 5.15125 
244 82 2 2.57482 -0.116417 134.645 -26.2049 
245 82 1 3.36882 0.390034 134.474 12.906 
246 82 1 2.46113 -0.0709099 135.594 4.53798 
247 83 2 -1.06212 1.56768 64.7764 -17.6706 
248 83 1 -0.112371 1.68127 64.8126 3.45054 
249 83 1 -1.25259 1.43437 63.8478 3.05032 
250 84 2 1.79418 0.34034 96.5496 -25.1295 
251 84 1 2.2706 0.156027 97.3591 7.1778 
252 84 1 1.08813 0.929421 96.8155 6.58523 
253 85 2 -2.19476 -0.388899 99.5476 -23.7057 
254 85 1 -1.4951 0.263445 99.5136 6.96698 
255 85 1 -2.35249 -0.61956 98.6321 5.90974 
256 86 2 0.967375 2.05195 50.2695 -21.7457 
257 86 1 1.52236 1.27207 50.2719 5.24063 
258 86 1 0.845448 2.2625 51.1953 5.81339 
259 87 2 2.4129 -0.263647 24.6917 -21.495 
260 87 1 2.28768 -0.28489 23.743 7.49843 
261 87 1 2.04281 0.576103 24.9639 5.30143 
262 88 2 0.839316 -1.72449 93.2038 -17.0248 
263 88 1 0.688588 -1.95704 92.2876 3.6141 
264 88 1 1.4634 -0.999602 93.1679 4.33577 
265 89 2 -2.13118 0.713786 108.062 -17.9414 
266 89 1 -1.75847 -0.167637 108.041 4.39663 
267 89 1 -2.25445 0.900754 108.992 2.99923 
268 90 2 0.327645 -1.84273 87.8307 -18.7288 
269 90 1 -0.589532 -1.63735 88.0119 4.02722 
270 90 1 0.349922 -2.03453 86.8931 3.66364 
271 91 2 -0.0883745 -1.96341 18.9367 -26.5434 
272 91 1 -0.0259183 -2.31981 19.8229 6.60608 
273 91 1 0.788471 -1.62756 18.7508 9.67256 
274 92 2 -0.593713 1.72428 90.8062 -29.6821 
275 92 1 -0.662542 1.96234 91.7308 7.95594 
276 92 1 -1.01965 2.44408 90.3407 10.2177 
277 93 2 -2.02921 0.773338 44.6122 -21.2586 
278 93 1 -2.14976 0.900977 45.5531 4.39773 
279 93 1 -1.65864 -0.105821 44.5348 6.6384 
280 94 2 -2.10573 0.917661 127.987 -24.5845 
281 94 1 -1.18496 1.17784 128.014 8.06597 
282 94 1 -2.48941 1.31224 128.77 7.07632 
283 95 2 2.28741 0.062865 39.025 -24.7402 
284 95 1 1.55017 -0.543716 38.956 6.69738 
285 95 1 2.45545 0.339761 38.1242 8.61444 
286 96 2 -0.458774 -2.23231 151.559 -16.3753 
287 96 1 -0.658301 -2.35211 152.488 3.61703 
288 96 1 -0.877233 -1.4028 151.329 3.96405 
289 97 2 -0.0853427 1.88657 179.077 -12.3899 
290 97 1 0.155528 2.29134 179.91 -0.234877 
291 97 1 0.693585 1.39611 178.814 2.40244 
292 98 2 -1.86566 -0.628024 142.511 -21.0883 
293 98 1 -1.09484 -1.1846 142.4 5.50574 
294 98 1 -2.16189 -0.447829 141.619 4.4345 
295 99 2 1.99164 0.654424 93.5456 -24.6393 
296 99 1 1.05543 0.853709 93.55 9.99967 
297 99 1 2.21839 0.546665 94.4693 6.19724 
298 100 2 -2.14347 -0.525258 105.041 -26.8645 
299 100 1 -2.89798 -0.494969 105.629 9.75328 
300 100 1 -2.52452 -0.572533 104.164 8.41413 
301 101 2 -1.41162 -1.22989 64.87 -17.0578 
302 101 1 -1.4419 -0.273863 64.9064 3.78736 
303 101 1 -1.69089 -1.51222 65.7409 4.60152 
304 102 2 -0.674401 -1.73963 110.591 -17.6 
305 102 1 -0.916651 -2.03342 109.712 3.17147 
306 102 1 0.240171 -1.46908 110.509 4.19827 
307 103 2 -1.76278 0.312871 18.9824 -23.6972 
308 103 1 -2.02193 0.360566 18.0622 6.05367 
309 103 1 -1.17905 -0.444342 19.0284 5.81359 
310 104 2 0.111882 -1.83973 24.5885 -22.8707 
311 104 1 -0.041261 -2.26726 25.4311 4.44413 
312 104 1 1.03415 -1.58468 24.6129 6.18061 
313 105 2 2.03232 -0.347914 181.744 -23.8415 
314 105 1 1.74718 0.549789 181.915 6.96389 
315 105 1 2.2358 -0.361593 180.809 7.18429 
316 106 2 -1.35115 -1.74541 56.6192 -17.2056 
317 106 1 -1.47147 -0.795801 56.6188 3.76895 
318 106 1 -1.13029 -1.9589 57.5258 2.47043 
319 107 2 0.338584 -1.70074 32.9305 -23.1978 
320 107 1 -0.307844 -1.01063 33.0793 7.1526 
321 107 1 1.18366 -1.25577 32.9944 7.98635 
322 108 2 1.90829 0.17406 142.834 -19.0982 
323 108 1 1.20451 0.807703 142.695 3.25576 
324 108 1 1.99039 0.112085 143.786 4.32918 
325 109 2 -0.76457 -1.25152 50.5785 -21.4364 
326 109 1 -1.15105 -1.81369 51.25 7.41354 
327 109 1 -1.28646 -0.44963 50.6074 3.25887 
328 110 2 -2.05614 -1.02272 70.7183 -22.8008 
329 110 1 -1.83873 -0.0918492 70.7678 5.61657 
330 110 1 -2.35875 -1.24556 71.5987 5.80839 
331 111 2 1.93764 -0.0604446 30.2611 -22.7146 
332 111 1 2.12135 -0.0443005 29.3218 3.6257 
333 111 1 1.38673 -0.8334 30.3846 7.17966 
334 112 2 0.619395 2.04103 168.304 -14.6271 
335 112 1 -0.335071 2.08514 168.361 0.783448 
336 112 1 0.807204 2.11233 167.368 2.31565 
337 113 2 1.98243 -0.157743 36.1661 -24.1565 
338 113 1 2.46919 -0.13877 35.3421 6.58955 
339 113 1 1.34187 0.548635 36.0827 6.76819 
340 114 2 -1.56182 0.0487292 27.4719 -21.9539 
341 114 1 -1.7797 0.211734 26.5542 3.60115 
342 114 1 -1.39836 -0.893377 27.5161 7.21187 
343 115 2 -1.71729 -0.754488 102.223 -22.0216 
344 115 1 -1.38348 0.13003 102.373 6.38385 
345 115 1 -2.12606 -0.713549 101.359 4.83315 
346 116 2 -0.1611 1.6414 145.626 -25.0504 
347 116 1 -0.316142 2.1123 144.807 6.08994 
348 116 1 -0.880428 1.01229 145.681 8.8297 
349 117 2 0.416684 1.74864 148.526 -21.061 
350 117 1 0.497978 2.25688 147.719 7.57939 
351 117 1 0.997353 0.998717 148.396 3.90447 
352 118 2 -1.77631 -0.899529 82.1008 -23.5142 
353 118 1 -1.89511 -0.615756 83.0072 9.47698 
354 118 1 -0.933422 -1.35316 82.0999 5.54116 
355 119 2 -1.50369 1.48775 67.6582 -21.1296 
356 119 1 -0.639814 1.8402 67.8721 4.95533 
357 119 1 -1.61343 1.67107 66.7252 4.22089 
358 120 2 1.42693 -0.986731 56.3796 -20.2396 
359 120 1 1.82786 -1.05345 55.513 4.26996 
360 120 1 0.599608 -1.46127 56.2984 5.20453 
361 121 2 1.96347 0.142192 178.728 -21.1742 
362 121 1 2.24133 0.118174 177.812 3.19375 
363 121 1 1.37304 -0.605668 178.819 7.47651 
364 122 2 -0.384723 -2.20136 139.091 -25.3497 
365 122 1 -0.346863 -2.40953 138.158 5.90595 
366 122 1 -0.106024 -3.00617 139.528 9.17331 
367 123 2 -1.45607 -1.78218 53.5986 -18.7227 
368 123 1 -1.5909 -0.840399 53.4933 3.91007 
369 123 1 -1.551 -1.93454 54.5388 3.94658 
370 124 2 -1.63435 -1.56388 172.2 -28.4653 
371 124 1 -0.763925 -1.42451 172.573 9.05679 
372 124 1 -1.83905 -2.47667 172.403 10.3826 
373 125 2 -0.2328 -1.76231 159.498 -30.1614 
374 125 1 -0.184591 -2.24826 160.321 13.4307 
375 125 1 -0.774852 -0.99988 159.701 7.2702 
376 126 2 -1.65178 1.4013 50.2864 -15.2661 
377 126 1 -2.03612 1.46655 49.4122 2.46044 
378 126 1 -0.725268 1.60393 50.157 2.25449 
379 127 2 0.691034 1.91745 24.9348 -19.8757 
380 127 1 0.284216 2.32976 25.6969 2.8023 
381 127 1 -0.0329169 1.48756 24.4795 7.06608 
382 128 2 -1.49221 0.233812 24.7436 -21.8459 
383 128 1 -0.890406 -0.510121 24.7184 4.26142 
384 128 1 -2.04066 0.125189 23.9667 6.91686 
385 129 2 2.17552 -0.176022 102.35 -19.0671 
386 129 1 2.32047 -0.0175237 103.283 3.99982 
387 129 1 1.78134 -1.04751 102.313 4.40124 
388 130 2 0.58084 2.24146 16.0098 -25.6016 
389 130 1 0.626815 2.6908 16.8537 5.79944 
390 130 1 1.24146 1.55132 16.069 9.92103 
391 131 2 0.317979 1.51982 7.49701 -23.7737 
392 131 1 0.488343 1.86456 8.37358 6.43247 
393 131 1 -0.622098 1.33978 7.48846 6.17888 
394 132 2 2.15503 -0.297998 44.9028 -18.7709 
395 132 1 2.072 0.652148 44.9838 3.50898 
396 132 1 2.19112 -0.456202 43.9595 5.35154 
397 133 2 2.37911 -0.644305 113.519 -25.2195 
398 133 1 2.03838 0.24648 113.438 8.83198 
399 133 1 2.74902 -0.680029 114.402 7.68956 
400 134 2 -1.65305 0.709273 16.1171 -22.6324 
401 134 1 -0.969068 1.37456 16.041 4.32244 
402 134 1 -1.99801 0.616955 15.229 5.75521 
403 135 2 -1.86825 -0.601433 90.91 -21.5515 
404 135 1 -1.54488 0.295176 90.8219 5.14741 
405 135 1 -1.09409 -1.14948 90.7813 6.24202 
406 136 2 0.794127 1.75172 165.416 -16.3432 
407 136 1 1.31182 0.964986 165.245 2.05512 
408 136 1 0.7121 2.17554 164.561 3.48236 
409 137 2 2.29383 -0.434685 99.1844 -28.3634 
410 137 1 3.03009 -0.2102 99.7534 10.1499 
411 137 1 1.79708 -1.08554 99.6802 7.84161 
412 138 2 0.366113 2.33649 159.88 -26.1122 
413 138 1 0.442843 2.81192 159.053 7.50453 
414 138 1 0.924696 1.56736 159.767 7.99388 
415 139 2 -0.552102 2.09274 84.9571 -28.8626 
416 139 1 0.248605 1.5685 84.9738 9.97826 
417 139 1 -0.564041 2.48491 84.084 8.18513 
418 140 2 0.777136 -1.55143 70.375 -21.3961 
419 140 1 -0.179092 -1.50968 70.3859 7.35863 
420 140 1 0.997483 -1.77231 69.4701 4.99917 
421 141 2 -0.351325 -1.42937 47.5178 -27.6247 
422 141 1 -0.502665 -2.1291 48.1532 10.2234 
423 141 1 -0.68012 -1.78115 46.6906 7.72562 
424 142 2 -0.951147 1.89413 76.3536 -15.4835 
425 142 1 -1.35913 1.03802 76.4835 2.14839 
426 142 1 -1.04303 2.064 75.4161 1.07511 
427 143 2 -0.910195 -1.42642 122.36 -20.3584 
428 143 1 -1.33134 -0.609513 122.628 5.71224 
429 143 1 -0.792431 -1.33727 121.414 4.54145 
430 144 2 0.33942 2.01992 151.408 -21.5343 
431 144 1 0.966687 1.31195 151.555 5.6269 
432 144 1 0.441796 2.24329 150.483 4.85916 
433 145 2 -1.1667 -1.78567 130.965 -16.0574 
434 145 1 -1.24326 -1.9279 130.021 2.02468 
435 145 1 -1.387 -0.862215 131.087 3.85545 
436 146 2 0.110779 2.17482 181.709 -14.8155 
437 146 1 -0.457244 1.41118 181.811 1.91977 
438 146 1 0.11565 2.58754 182.572 4.1391 
439 147 2 -0.654664 2.032 79.0852 -21.8065 
440 147 1 0.291111 1.90542 79.1608 8.03577 
441 147 1 -0.791587 2.27712 78.1701 3.33802 
442 148 2 0.0106244 2.37886 154.148 -20.1769 
443 148 1 -0.822022 1.90778 154.116 5.87214 
444 148 1 0.117836 2.7367 153.267 4.16178 
445 149 2 -1.94057 -0.470155 88.2805 -21.0028 
446 149 1 -1.69835 0.452917 88.2063 6.99157 
447 149 1 -2.14576 -0.590669 89.2076 3.20458 
448 150 2 -2.07697 -0.20241 179.317 -19.846 
449 150 1 -1.27427 0.285639 179.133 6.59067 
450 150 1 -2.5641 -0.181842 178.493 4.58141 
451 151 2 1.90773 0.742732 87.5091 -24.5106 
452 151 1 1.42985 -0.0460215 87.7655 7.37068 
453 151 1 2.26757 1.08231 88.3285 6.83639 
454 152 2 -0.624473 -1.51398 116.073 -18.3989 
455 152 1 -0.56862 -1.5147 115.118 3.54224 
456 152 1 -1.19165 -0.771129 116.28 5.93617 
457 153 2 -1.82474 0.0512168 139.743 -22.6018 
458 153 1 -1.14101 0.713095 139.847 6.83597 
459 153 1 -1.38988 -0.675505 139.297 6.28617 
460 154 2 1.45671 -1.19813 53.6368 -24.4231 
461 154 1 1.80014 -1.32269 52.752 7.32977 
462 154 1 0.519749 -1.37738 53.558 6.85763 
463 155 2 -0.0339336 -1.80625 178.924 -23.3205 
464 155 1 -0.915018 -1.45489 179.052 4.36624 
465 155 1 0.18841 -2.20904 179.763 6.94783 
466 156 2 -0.502583 -2.10394 7.57296 -20.3744 
467 156 1 -0.746364 -2.36051 8.46232 4.13992 
468 156 1 0.379159 -1.74193 7.66079 4.76081 
469 157 2 -1.62986 1.14714 47.6061 -18.5359 
470 157 1 -1.2836 0.276632 47.8024 4.35915 
471 157 1 -0.85285 1.69028 47.4739 4.35898 
472 158 2 0.714846 -2.05396 96.2152 -20.7015 
473 158 1 1.08137 -1.18484 96.378 5.27053 
474 158 1 1.19796 -2.37971 95.4557 5.74597 
475 159 2 0.684705 -2.30478 142.186 -19.9698 
476 159 1 1.17092 -1.51279 142.415 4.66504 
477 159 1 0.506969 -2.72877 143.025 6.32754 
478 160 2 -2.00399 -1.2899 67.8274 -23.15 
479 160 1 -2.26722 -1.55586 68.7085 6.12991 
480 160 1 -1.98761 -0.333402 67.8603 5.9217 
481 161 2 1.56336 -0.557028 145.655 -22.5764 
482 161 1 2.04118 -0.541382 146.484 4.72165 
483 161 1 0.952567 0.177436 145.716 6.51407 
484 162 2 -2.1578 -0.831545 73.573 -20.3295 
485 162 1 -2.33062 -1.06954 74.4839 4.60961 
486 162 1 -2.01226 0.114257 73.5956 3.76232 
487 163 2 -0.513195 -2.02408 156.766 -22.1823 
488 163 1 -0.170007 -2.26042 157.628 6.91514 
489 163 1 -1.2041 -1.38743 156.949 5.38474 
490 164 2 -0.179427 1.38558 102.088 -26.0791 
491 164 1 0.649423 0.913771 102.169 6.43853 
492 164 1 -0.314911 1.78298 102.948 7.88743 
493 165 2 1.21552 -1.80997 79.0117 -21.9789 
494 165 1 1.22065 -2.24642 78.1598 5.32564 
495 165 1 0.346644 -1.41305 79.0728 5.79721 
496 166 2 2.07309 -0.240504 162.515 -19.4548 
497 166 1 1.37989 0.409095 162.632 5.33031 
498 166 1 2.45532 -0.343419 163.386 4.40263 
499 167 2 -1.72248 0.480443 159.849 -26.1129 
500 167 1 -0.994807 1.10201 159.83 8.0293 
501 167 1 -2.10621 0.532711 158.974 5.73434 
502 168 2 1.6222 -0.302731 107.764 -27.4793 
503 168 1 2.0303 -0.537926 106.931 6.1992 
504 168 1 2.33373 -0.352936 108.402 10.2646 
505 169 2 0.26559 1.97873 110.603 -28.2547 
506 169 1 0.443797 2.35564 109.741 9.13084 
507 169 1 -0.687076 2.0153 110.688 8.31374 
508 170 2 0.886729 1.51158 53.2732 -20.6682 
509 170 1 1.1936 1.93747 54.0736 4.7983 
510 170 1 1.26216 0.63186 53.3104 4.37883 
511 171 2 -0.826182 -2.00362 133.898 -17.9762 
512 171 1 -1.15071 -1.10639 133.822 5.21763 
513 171 1 -0.900293 -2.36203 133.014 4.35927 
514 172 2 1.95258 -0.406769 148.527 -21.9396 
515 172 1 1.15858 -0.839025 148.842 5.6774 
516 172 1 2.4297 -0.172479 149.323 5.50522 
517 173 2 1.99347 -0.591078 16.1953 -27.0312 
518 173 1 1.23647 -1.17586 16.2303 8.3299 
519 173 1 2.43293 -0.816194 15.3752 8.04324 
520 174 2 -1.84009 0.677798 58.9612 -16.3191 
521 174 1 -1.95584 1.02376 58.0762 1.9037 
522 174 1 -0.996738 1.02848 59.2475 5.63928 
523 175 2 0.933464 2.129 116.056 -25.9138 
524 175 1 1.01914 2.40556 115.144 6.30045 
525 175 1 1.62715 1.4805 116.177 10.194 
526 176 2 1.45028 -0.992975 125.553 -23.1718 
527 176 1 1.77431 -1.36996 126.371 6.5582 
528 176 1 1.63953 -0.0576922 125.628 7.54874 
529 177 2 2.30486 -0.595458 165.497 -16.9835 
530 177 1 1.75478 -1.37331 165.404 5.27202 
531 177 1 2.47534 -0.532699 166.436 1.08947 
532 178 2 -1.36925 1.0453 62.1617 -25.7616 
533 178 1 -0.428937 1.21948 62.1203 7.16057 
534 178 1 -1.66433 1.10373 61.2529 8.79106 
535 179 2 -0.102706 -1.54329 38.7586 -24.6261 
536 179 1 -0.332632 -1.9004 37.9007 5.54477 
537 179 1 -0.641879 -0.756962 38.8435 8.61799 
538 180 2 0.698215 1.67722 59.4548 -23.5735 
539 180 1 0.998676 2.17726 60.2137 6.79351 
540 180 1 1.00915 0.786389 59.616 6.59332 
541 181 2 0.24427 2.38049 18.7109 -26.2862 
542 181 1 0.1489 2.89382 19.5131 8.53835 
543 181 1 -0.530912 1.81929 18.6915 7.33599 
544 182 2 -1.81589 0.664442 10.2426 -20.2369 
545 182 1 -2.10387 0.713519 9.33106 3.95307 
546 182 1 -1.06017 1.25019 10.2874 5.56037 
547 183 2 -1.21425 2.0339 93.557 -22.9881 
548 183 1 -1.49911 1.12536 93.6552 6.34107 
549 183 1 -1.23581 2.38949 94.4455 5.90069 
550 184 2 -2.11834 0.564993 134.152 -16.0666 
551 184 1 -1.28936 0.990317 133.933 5.81066 
552 184 1 -2.0626 0.401884 135.094 1.60471 
553 185 2 0.793049 1.6419 10.4006 -19.2048 
554 185 1 0.629131 1.96589 11.2862 3.56591 
555 185 1 1.23752 0.80408 10.5299 4.24592 
556 186 2 2.05122 0.157808 175.911 -15.2524 
557 186 1 1.82793 0.742906 175.187 3.26423 
558 186 1 1.2376 -0.308791 176.102 3.56251 
559 187 2 -1.23489 1.76844 73.7293 -25.0498 
560 187 1 -1.45664 2.28159 72.9523 7.25855 
561 187 1 -0.406122 1.34373 73.5079 8.07155 
562 188 2 1.09045 1.91741 118.884 -20.2104 
563 188 1 0.246214 1.53796 119.128 4.777 
564 188 1 0.972405 2.20294 117.978 5.11439 
565 189 2 0.126562 2.13352 27.6394 -18.5893 
566 189 1 -0.491823 1.41743 27.7845 3.67248 
567 189 1 0.392278 2.40299 28.5186 4.9177 
568 190 2 -1.75865 0.276108 151.28 -18.9139 
569 190 1 -1.1894 1.04538 151.3 3.02464 
570 190 1 -2.16204 0.298791 150.412 4.39704 
571 191 2 2.25299 -0.799427 13.1405 -25.3267 
572 191 1 2.02018 0.12903 13.1397 8.96311 
573 191 1 2.60167 -0.960161 12.2636 6.78289 
574 192 2 -2.23704 0.425875 21.8894 -22.6308 
575 192 1 -1.64965 1.16113 22.0644 7.52203 
576 192 1 -2.22712 0.332198 20.9368 4.81373 
577 193 2 0.920253 1.95778 125.661 -30.2585 
578 193 1 0.149663 1.67567 125.168 10.3577 
579 193 1 1.36577 2.57284 125.078 11.0515 
580 194 2 0.795271 1.70288 128.44 -24.7376 
581 194 1 0.676511 1.86003 127.504 6.2561 
582 194 1 1.30034 0.891023 128.485 8.23603 
583 195 2 -0.9341 -1.60878 62.2195 -16.6528 
584 195 1 -0.911325 -1.73575 63.168 2.3018 
585 195 1 -1.26437 -0.717753 62.1045 3.86115 
586 196 2 -1.9122 0.932247 53.1933 -21.4922 
587 196 1 -2.26761 1.35837 52.4133 4.9234 
588 196 1 -1.01701 1.26427 53.2613 5.241 
589 197 2 -2.25895 0.580542 154.073 -16.5259 
590 197 1 -2.58508 0.358144 153.201 3.58571 
591 197 1 -1.57167 -0.0634665 154.243 2.24254 
592 198 2 -1.76985 -0.752077 96.6253 -23.3087 
593 198 1 -2.2462 -0.897061 95.8078 5.1314 
594 198 1 -0.97061 -1.27058 96.5325 6.30115 
595 199 2 -1.56593 1.27041 119.085 -20.4645 
596 199 1 -1.87836 1.57728 119.936 5.37846 
597 199 1 -1.38711 0.339293 119.216 4.62164 
598 200 2 -1.64247 1.17782 116.33 -19.2013 
599 200 1 -1.87446 1.51009 117.197 2.73653 
600 200 1 -0.708496 1.36806 116.242 4.81363 
601 201 2 -0.968937 -2.15675 59.2826 -24.0274 
602 201 1 -1.60329 -1.44217 59.3392 6.56962 
603 201 1 -1.20146 -2.74171 60.0037 7.5093 
604 202 2 -1.70072 1.04652 56.3599 -23.7762 
605 202 1 -0.965287 1.65344 56.4437 7.12456 
606 202 1 -2.0167 1.17442 55.4655 6.82118 
607 203 2 -1.90163 1.36016 168.696 -20.596 
608 203 1 -2.75562 1.71932 168.455 8.39985 
609 203 1 -1.88095 1.41012 169.651 3.61228 
610 204 2 -2.14623 -0.68132 145.374 -18.5911 
611 204 1 -2.40727 -0.646625 144.453 4.023 
612 204 1 -1.57776 -1.44913 145.433 3.14089 
613 205 2 1.73661 -1.17071 59.2842 -20.6257 
614 205 1 0.937522 -1.67112 59.4494 5.82645 
615 205 1 1.97027 -1.38305 58.3806 4.16643 
616 206 2 -0.86087 -2.08955 164.445 -24.4203 
617 206 1 -0.899566 -1.53808 163.663 6.44184 
618 206 1 -0.981758 -2.98037 164.116 12.0804 
619 207 2 0.406263 2.17276 184.764 -20.1123 
620 207 1 0.467172 2.51693 185.656 7.40535 
621 207 1 0.977435 1.40465 184.764 3.35858 
622 208 2 1.63629 1.11902 76.4909 -15.634 
623 208 1 0.823255 1.6216 76.4397 2.31308 
624 208 1 1.79293 1.01076 77.4289 2.62259 
625 209 2 -1.94346 0.499621 173.94 -25.8698 
626 209 1 -1.9089 -0.276499 173.381 6.70218 
627 209 1 -1.06826 0.881693 173.875 9.69948 
628 210 2 -2.19182 0.0149921 136.763 -24.2265 
629 210 1 -1.76272 -0.837876 136.832 5.34411 
630 210 1 -2.56937 0.164217 137.63 9.21371 
631 211 2 0.275222 2.18124 107.65 -23.7041 
632 211 1 0.932791 1.51751 107.859 7.93711 
633 211 1 -0.562393 1.75263 107.826 5.65907 
634 212 2 0.200743 -2.26311 99.4231 -25.7448 
635 212 1 0.312976 -2.16184 98.4779 8.17295 
636 212 1 -0.627017 -1.82244 99.6151 9.06101 
637 213 2 -2.35693 0.670652 110.806 -20.398 
638 213 1 -2.74479 0.947003 111.636 5.18852 
639 213 1 -1.92846 -0.161498 111.006 4.67067 
640 214 2 -0.297382 -1.72034 36.0077 -26.538 
641 214 1 -0.332238 -2.0122 35.0968 8.1273 
642 214 1 0.564635 -1.31383 36.0967 6.56713 
643 215 2 0.251463 -2.2387 73.3178 -23.5354 
644 215 1 0.506501 -2.73262 72.5386 8.00671 
645 215 1 -0.626919 -1.91417 73.1194 5.83142 
646 216 2 -0.827308 2.25874 87.7885 -22.9159 
647 216 1 0.0766636 1.94817 87.8395 8.11312 
648 216 1 -0.94768 2.49679 86.8692 5.68031 
649 217 2 0.482769 -2.32859 102.211 -21.7263 
650 217 1 -0.231086 -1.69293 102.161 5.8343 
651 217 1 0.474828 -2.76684 101.36 5.63275 
652 218 2 -2.0045 0.585669 113.598 -19.6203 
653 218 1 -1.95919 0.778578 114.535 3.84954 
654 218 1 -1.51742 -0.232195 113.498 5.61852 
655 219 2 1.33723 1.58842 62.2611 -24.2229 
656 219 1 1.71707 2.00352 63.0355 7.30595 
657 219 1 1.62351 0.676497 62.3129 6.35335 
658 220 2 -2.02513 -0.260875 85.3156 -24.1768 
659 220 1 -2.25964 -0.399073 86.2333 6.14343 
660 220 1 -1.58149 0.587258 85.3064 7.22491 
661 221 2 -2.01476 1.21784 122.07 -20.4529 
662 221 1 -1.26104 1.79681 122.183 5.67755 
663 221 1 -2.39294 1.14139 122.945 5.62478 
664 222 2 -1.55746 1.5535 171.327 -20.5219 
665 222 1 -1.80951 1.25903 172.202 5.81661 
666 222 1 -0.645769 1.27708 171.234 7.51594 
667 223 2 -2.3113 0.263288 148.532 -28.9891 
668 223 1 -1.72385 0.925574 148.168 9.10132 
669 223 1 -2.85485 -0.00803162 147.792 10.2225 
670 224 2 1.94746 0.124443 84.8564 -22.2383 
671 224 1 2.26686 0.441474 85.7012 3.77773 
672 224 1 1.45096 -0.66588 85.0687 7.48427 
673 225 2 1.95997 -0.870209 116.698 -17.0099 
674 225 1 2.19311 -0.887259 117.626 4.25415 