ITEM: TIMESTEP
0
ITEM: NUMBER OF ATOMS
4096
ITEM: BOX BOUNDS pp pp pp
-7.9599900000000001e-01 5.0164000000000001e+01
-7.9599900000000001e-01 5.0164000000000001e+01
-7.9599900000000001e-01 5.0164000000000001e+01
ITEM: ATOMS id type x y z 
1 1 0 0 0 
2 1 0 0 6.37 
3 1 0 0 12.74 
4 1 0 0 19.11 
5 1 0 0 25.48 
6 1 0 0 31.85 
7 1 0 0 38.22 
8 1 0 0 44.59 
9 1 0 6.37 0 
10 1 0 6.37 6.37 
11 1 0 6.37 12.74 
12 1 0 6.37 19.11 
13 1 0 6.37 25.48 
14 1 0 6.37 31.85 
15 1 0 6.37 38.22 
16 1 0 6.37 44.59 
17 1 0 12.74 0 
18 1 0 12.74 6.37 
19 1 0 12.74 12.74 
20 1 0 12.74 19.11 
21 1 0 12.74 25.48 
22 1 0 12.74 31.85 
23 1 0 12.74 38.22 
24 1 0 12.74 44.59 
25 1 0 19.11 0 
26 1 0 19.11 6.37 
27 1 0 19.11 12.74 
28 1 0 19.11 19.11 
29 1 0 19.11 25.48 
30 1 0 19.11 31.85 
31 1 0 19.11 38.22 
32 1 0 19.11 44.59 
33 1 0 25.48 0 
34 1 0 25.48 6.37 
35 1 0 25.48 12.74 
36 1 0 25.48 19.11 
37 1 0 25.48 25.48 
38 1 0 25.48 31.85 
39 1 0 25.48 38.22 
40 1 0 25.48 44.59 
41 1 0 31.85 0 
42 1 0 31.85 6.37 
43 1 0 31.85 12.74 
44 1 0 31.85 19.11 
45 1 0 31.85 25.48 
46 1 0 31.85 31.85 
47 1 0 31.85 38.22 
48 1 0 31.85 44.59 
49 1 0 38.22 0 
50 1 0 38.22 6.37 
51 1 0 38.22 12.74 
52 1 0 38.22 19.11 
53 1 0 38.22 25.48 
54 1 0 38.22 31.85 
55 1 0 38.22 38.22 
56 1 0 38.22 44.59 
57 1 0 44.59 0 
58 1 0 44.59 6.37 
59 1 0 44.59 12.74 
60 1 0 44.59 19.11 
61 1 0 44.59 25.48 
62 1 0 44.59 31.85 
63 1 0 44.59 38.22 
64 1 0 44.59 44.59 
65 1 6.37 0 0 
66 1 6.37 0 6.37 
67 1 6.37 0 12.74 
68 1 6.37 0 19.11 
69 1 6.37 0 25.48 
70 1 6.37 0 31.85 
71 1 6.37 0 38.22 
72 1 6.37 0 44.59 
73 1 6.37 6.37 0 
74 1 6.37 6.37 6.37 
75 1 6.37 6.37 12.74 
76 1 6.37 6.37 19.11 
77 1 6.37 6.37 25.48 
78 1 6.37 6.37 31.85 
79 1 6.37 6.37 38.22 
80 1 6.37 6.37 44.59 
81 1 6.37 12.74 0 
82 1 6.37 12.74 6.37 
83 1 6.37 12.74 12.74 
84 1 6.37 12.74 19.11 
85 1 6.37 12.74 25.48 
86 1 6.37 12.74 31.85 
87 1 6.37 12.74 38.22 
88 1 6.37 12.74 44.59 
89 1 6.37 19.11 0 
90 1 6.37 19.11 6.37 
91 1 6.37 19.11 12.74 
92 1 6.37 19.11 19.11 
93 1 6.37 19.11 25.48 
94 1 6.37 19.11 31.85 
95 1 6.37 19.11 38.22 
96 1 6.37 19.11 44.59 
97 1 6.37 25.48 0 
98 1 6.37 25.48 6.37 
99 1 6.37 25.48 12.74 
100 1 6.37 25.48 19.11 
101 1 6.37 25.48 25.48 
102 1 6.37 25.48 31.85 
103 1 6.37 25.48 38.22 
104 1 6.37 25.48 44.59 
105 1 6.37 31.85 0 
106 1 6.37 31.85 6.37 
107 1 6.37 31.85 12.74 
108 1 6.37 31.85 19.11 
109 1 6.37 31.85 25.48 
110 1 6.37 31.85 31.85 
111 1 6.37 31.85 38.22 
112 1 6.37 31.85 44.59 
113 1 6.37 38.22 0 
114 1 6.37 38.22 6.37 
115 1 6.37 38.22 12.74 
116 1 6.37 38.22 19.11 
117 1 6.37 38.22 25.48 
118 1 6.37 38.22 31.85 
119 1 6.37 38.22 38.22 
120 1 6.37 38.22 44.59 
121 1 6.37 44.59 0 
122 1 6.37 44.59 6.37 
123 1 6.37 44.59 12.74 
124 1 6.37 44.59 19.11 
125 1 6.37 44.59 25.48 
126 1 6.37 44.59 31.85 
127 1 6.37 44.59 38.22 
128 1 6.37 44.59 44.59 
129 1 12.74 0 0 
130 1 12.74 0 6.37 
131 1 12.74 0 12.74 
132 1 12.74 0 19.11 
133 1 12.74 0 25.48 
134 1 12.74 0 31.85 
135 1 12.74 0 38.22 
136 1 12.74 0 44.59 
137 1 12.74 6.37 0 
138 1 12.74 6.37 6.37 
139 1 12.74 6.37 12.74 
140 1 12.74 6.37 19.11 
141 1 12.74 6.37 25.48 
142 1 12.74 6.37 31.85 
143 1 12.74 6.37 38.22 
144 1 12.74 6.37 44.59 
145 1 12.74 12.74 0 
146 1 12.74 12.74 6.37 
147 1 12.74 12.74 12.74 
148 1 12.74 12.74 19.11 
149 1 12.74 12.74 25.48 
150 1 12.74 12.74 31.85 
151 1 12.74 12.74 38.22 
152 1 12.74 12.74 44.59 
153 1 12.74 19.11 0 
154 1 12.74 19.11 6.37 
155 1 12.74 19.11 12.74 
156 1 12.74 19.11 19.11 
157 1 12.74 19.11 25.48 
158 1 12.74 19.11 31.85 
159 1 12.74 19.11 38.22 
160 1 12.74 19.11 44.59 
161 1 12.74 25.48 0 
162 1 12.74 25.48 6.37 
163 1 12.74 25.48 12.74 
164 1 12.74 25.48 19.11 
165 1 12.74 25.48 25.48 
166 1 12.74 25.48 31.85 
167 1 12.74 25.48 38.22 
168 1 12.74 25.48 44.59 
169 1 12.74 31.85 0 
170 1 12.74 31.85 6.37 
171 1 12.74 31.85 12.74 
172 1 12.74 31.85 19.11 
173 1 12.74 31.85 25.48 
174 1 12.74 31.85 31.85 
175 1 12.74 31.85 38.22 
176 1 12.74 31.85 44.59 
177 1 12.74 38.22 0 
178 1 12.74 38.22 6.37 
179 1 12.74 38.22 12.74 
180 1 12.74 38.22 19.11 
181 1 12.74 38.22 25.48 
182 1 12.74 38.22 31.85 
183 1 12.74 38.22 38.22 
184 1 12.74 38.22 44.59 
185 1 12.74 44.59 0 
186 1 12.74 44.59 6.37 
187 1 12.74 44.59 12.74 
188 1 12.74 44.59 19.11 
189 1 12.74 44.59 25.48 
190 1 12.74 44.59 31.85 
191 1 12.74 44.59 38.22 
192 1 12.74 44.59 44.59 
193 1 19.11 0 0 
194 1 19.11 0 6.37 
195 1 19.11 0 12.74 
196 1 19.11 0 19.11 
197 1 19.11 0 25.48 
198 1 19.11 0 31.85 
199 1 19.11 0 38.22 
200 1 19.11 0 44.59 
201 1 19.11 6.37 0 
202 1 19.11 6.37 6.37 
203 1 19.11 6.37 12.74 
204 1 19.11 6.37 19.11 
205 1 19.11 6.37 25.48 
206 1 19.11 6.37 31.85 
207 1 19.11 6.37 38.22 
208 1 19.11 6.37 44.59 
209 1 19.11 12.74 0 
210 1 19.11 12.74 6.37 
211 1 19.11 12.74 12.74 
212 1 19.11 12.74 19.11 
213 1 19.11 12.74 25.48 
214 1 19.11 12.74 31.85 
215 1 19.11 12.74 38.22 
216 1 19.11 12.74 44.59 
217 1 19.11 19.11 0 
218 1 19.11 19.11 6.37 
219 1 19.11 19.11 12.74 
220 1 19.11 19.11 19.11 
221 1 19.11 19.11 25.48 
222 1 19.11 19.11 31.85 
223 1 19.11 19.11 38.22 
224 1 19.11 19.11 44.59 
225 1 19.11 25.48 0 
226 1 19.11 25.48 6.37 
227 1 19.11 25.48 12.74 
228 1 19.11 25.48 19.11 
229 1 19.11 25.48 25.48 
230 1 19.11 25.48 31.85 
231 1 19.11 25.48 38.22 
232 1 19.11 25.48 44.59 
233 1 19.11 31.85 0 
234 1 19.11 31.85 6.37 
235 1 19.11 31.85 12.74 
236 1 19.11 31.85 19.11 
237 1 19.11 31.85 25.48 
238 1 19.11 31.85 31.85 
239 1 19.11 31.85 38.22 
240 1 19.11 31.85 44.59 
241 1 19.11 38.22 0 
242 1 19.11 38.22 6.37 
243 1 19.11 38.22 12.74 
244 1 19.11 38.22 19.11 
245 1 19.11 38.22 25.48 
246 1 19.11 38.22 31.85 
247 1 19.11 38.22 38.22 
248 1 19.11 38.22 44.59 
249 1 19.11 44.59 0 
250 1 19.11 44.59 6.37 
251 1 19.11 44.59 12.74 
252 1 19.11 44.59 19.11 
253 1 19.11 44.59 25.48 
254 1 19.11 44.59 31.85 
255 1 19.11 44.59 38.22 
256 1 19.11 44.59 44.59 
257 1 25.48 0 0 
258 1 25.48 0 6.37 
259 1 25.48 0 12.74 
260 1 25.48 0 19.11 
261 1 25.48 0 25.48 
262 1 25.48 0 31.85 
263 1 25.48 0 38.22 
264 1 25.48 0 44.59 
265 1 25.48 6.37 0 
266 1 25.48 6.37 6.37 
267 1 25.48 6.37 12.74 
268 1 25.48 6.37 19.11 
269 1 25.48 6.37 25.48 
270 1 25.48 6.37 31.85 
271 1 25.48 6.37 38.22 
272 1 25.48 6.37 44.59 
273 1 25.48 12.74 0 
274 1 25.48 12.74 6.37 
275 1 25.48 12.74 12.74 
276 1 25.48 12.74 19.11 
277 1 25.48 12.74 25.48 
278 1 25.48 12.74 31.85 
279 1 25.48 12.74 38.22 
280 1 25.48 12.74 44.59 
281 1 25.48 19.11 0 
282 1 25.48 19.11 6.37 
283 1 25.48 19.11 12.74 
284 1 25.48 19.11 19.11 
285 1 25.48 19.11 25.48 
286 1 25.48 19.11 31.85 
287 1 25.48 19.11 38.22 
288 1 25.48 19.11 44.59 
289 1 25.48 25.48 0 
290 1 25.48 25.48 6.37 
291 1 25.48 25.48 12.74 
292 1 25.48 25.48 19.11 
293 1 25.48 25.48 25.48 
294 1 25.48 25.48 31.85 
295 1 25.48 25.48 38.22 
296 1 25.48 25.48 44.59 
297 1 25.48 31.85 0 
298 1 25.48 31.85 6.37 
299 1 25.48 31.85 12.74 
300 1 25.48 31.85 19.11 
301 1 25.48 31.85 25.48 
302 1 25.48 31.85 31.85 
303 1 25.48 31.85 38.22 
304 1 25.48 31.85 44.59 
305 1 25.48 38.22 0 
306 1 25.48 38.22 6.37 
307 1 25.48 38.22 12.74 
308 1 25.48 38.22 19.11 
309 1 25.48 38.22 25.48 
310 1 25.48 38.22 31.85 
311 1 25.48 38.22 38.22 
312 1 25.48 38.22 44.59 
313 1 25.48 44.59 0 
314 1 25.48 44.59 6.37 
315 1 25.48 44.59 12.74 
316 1 25.48 44.59 19.11 
317 1 25.48 44.59 25.48 
318 1 25.48 44.59 31.85 
319 1 25.48 44.59 38.22 
320 1 25.48 44.59 44.59 
321 1 31.85 0 0 
322 1 31.85 0 6.37 
323 1 31.85 0 12.74 
324 1 31.85 0 19.11 
325 1 31.85 0 25.48 
326 1 31.85 0 31.85 
327 1 31.85 0 38.22 
328 1 31.85 0 44.59 
329 1 31.85 6.37 0 
330 1 31.85 6.37 6.37 
331 1 31.85 6.37 12.74 
332 1 31.85 6.37 19.11 
333 1 31.85 6.37 25.48 
334 1 31.85 6.37 31.85 
335 1 31.85 6.37 38.22 
336 1 31.85 6.37 44.59 
337 1 31.85 12.74 0 
338 1 31.85 12.74 6.37 
339 1 31.85 12.74 12.74 
340 1 31.85 12.74 19.11 
341 1 31.85 12.74 25.48 
342 1 31.85 12.74 31.85 
343 1 31.85 12.74 38.22 
344 1 31.85 12.74 44.59 
345 1 31.85 19.11 0 
346 1 31.85 19.11 6.37 
347 1 31.85 19.11 12.74 
348 1 31.85 19.11 19.11 
349 1 31.85 19.11 25.48 
350 1 31.85 19.11 31.85 
351 1 31.85 19.11 38.22 
352 1 31.85 19.11 44.59 
353 1 31.85 25.48 0 
354 1 31.85 25.48 6.37 
355 1 31.85 25.48 12.74 
356 1 31.85 25.48 19.11 
357 1 31.85 25.48 25.48 
358 1 31.85 25.48 31.85 
359 1 31.85 25.48 38.22 
360 1 31.85 25.48 44.59 
361 1 31.85 31.85 0 
362 1 31.85 31.85 6.37 
363 1 31.85 31.85 12.74 
364 1 31.85 31.85 19.11 
365 1 31.85 31.85 25.48 
366 1 31.85 31.85 31.85 
367 1 31.85 31.85 38.22 
368 1 31.85 31.85 44.59 
369 1 31.85 38.22 0 
370 1 31.85 38.22 6.37 
371 1 31.85 38.22 12.74 
372 1 31.85 38.22 19.11 
373 1 31.85 38.22 25.48 
374 1 31.85 38.22 31.85 
375 1 31.85 38.22 38.22 
376 1 31.85 38.22 44.59 
377 1 31.85 44.59 0 
378 1 31.85 44.59 6.37 
379 1 31.85 44.59 12.74 
380 1 31.85 44.59 19.11 
381 1 31.85 44.59 25.48 
382 1 31.85 44.59 31.85 
383 1 31.85 44.59 38.22 
384 1 31.85 44.59 44.59 
385 1 38.22 0 0 
386 1 38.22 0 6.37 
387 1 38.22 0 12.74 
388 1 38.22 0 19.11 
389 1 38.22 0 25.48 
390 1 38.22 0 31.85 
391 1 38.22 0 38.22 
392 1 38.22 0 44.59 
393 1 38.22 6.37 0 
394 1 38.22 6.37 6.37 
395 1 38.22 6.37 12.74 
396 1 38.22 6.37 19.11 
397 1 38.22 6.37 25.48 
398 1 38.22 6.37 31.85 
399 1 38.22 6.37 38.22 
400 1 38.22 6.37 44.59 
401 1 38.22 12.74 0 
402 1 38.22 12.74 6.37 
403 1 38.22 12.74 12.74 
404 1 38.22 12.74 19.11 
405 1 38.22 12.74 25.48 
406 1 38.22 12.74 31.85 
407 1 38.22 12.74 38.22 
408 1 38.22 12.74 44.59 
409 1 38.22 19.11 0 
410 1 38.22 19.11 6.37 
411 1 38.22 19.11 12.74 
412 1 38.22 19.11 19.11 
413 1 38.22 19.11 25.48 
414 1 38.22 19.11 31.85 
415 1 38.22 19.11 38.22 
416 1 38.22 19.11 44.59 
417 1 38.22 25.48 0 
418 1 38.22 25.48 6.37 
419 1 38.22 25.48 12.74 
420 1 38.22 25.48 19.11 
421 1 38.22 25.48 25.48 
422 1 38.22 25.48 31.85 
423 1 38.22 25.48 38.22 
424 1 38.22 25.48 44.59 
425 1 38.22 31.85 0 
426 1 38.22 31.85 6.37 
427 1 38.22 31.85 12.74 
428 1 38.22 31.85 19.11 
429 1 38.22 31.85 25.48 
430 1 38.22 31.85 31.85 
431 1 38.22 31.85 38.22 
432 1 38.22 31.85 44.59 
433 1 38.22 38.22 0 
434 1 38.22 38.22 6.37 
435 1 38.22 38.22 12.74 
436 1 38.22 38.22 19.11 
437 1 38.22 38.22 25.48 
438 1 38.22 38.22 31.85 
439 1 38.22 38.22 38.22 
440 1 38.22 38.22 44.59 
441 1 38.22 44.59 0 
442 1 38.22 44.59 6.37 
443 1 38.22 44.59 12.74 
444 1 38.22 44.59 19.11 
445 1 38.22 44.59 25.48 
446 1 38.22 44.59 31.85 
447 1 38.22 44.59 38.22 
448 1 38.22 44.59 44.59 
449 1 44.59 0 0 
450 1 44.59 0 6.37 
451 1 44.59 0 12.74 
452 1 44.59 0 19.11 
453 1 44.59 0 25.48 
454 1 44.59 0 31.85 
455 1 44.59 0 38.22 
456 1 44.59 0 44.59 
457 1 44.59 6.37 0 
458 1 44.59 6.37 6.37 
459 1 44.59 6.37 12.74 
460 1 44.59 6.37 19.11 
461 1 44.59 6.37 25.48 
462 1 44.59 6.37 31.85 
463 1 44.59 6.37 38.22 
464 1 44.59 6.37 44.59 
465 1 44.59 12.74 0 
466 1 44.59 12.74 6.37 
467 1 44.59 12.74 12.74 
468 1 44.59 12.74 19.11 
469 1 44.59 12.74 25.48 
470 1 44.59 12.74 31.85 
471 1 44.59 12.74 38.22 
472 1 44.59 12.74 44.59 
473 1 44.59 19.11 0 
474 1 44.59 19.11 6.37 
475 1 44.59 19.11 12.74 
476 1 44.59 19.11 19.11 
477 1 44.59 19.11 25.48 
478 1 44.59 19.11 31.85 
479 1 44.59 19.11 38.22 
480 1 44.59 19.11 44.59 
481 1 44.59 25.48 0 
482 1 44.59 25.48 6.37 
483 1 44.59 25.48 12.74 
484 1 44.59 25.48 19.11 
485 1 44.59 25.48 25.48 
486 1 44.59 25.48 31.85 
487 1 44.59 25.48 38.22 
488 1 44.59 25.48 44.59 
489 1 44.59 31.85 0 
490 1 44.59 31.85 6.37 
491 1 44.59 31.85 12.74 
492 1 44.59 31.85 19.11 
493 1 44.59 31.85 25.48 
494 1 44.59 31.85 31.85 
495 1 44.59 31.85 38.22 
496 1 44.59 31.85 44.59 
497 1 44.59 38.22 0 
498 1 44.59 38.22 6.37 
499 1 44.59 38.22 12.74 
500 1 44.59 38.22 19.11 
501 1 44.59 38.22 25.48 
502 1 44.59 38.22 31.85 
503 1 44.59 38.22 38.22 
504 1 44.59 38.22 44.59 
505 1 44.59 44.59 0 
506 1 44.59 44.59 6.37 
507 1 44.59 44.59 12.74 
508 1 44.59 44.59 19.11 
509 1 44.59 44.59 25.48 
510 1 44.59 44.59 31.85 
511 1 44.59 44.59 38.22 
512 1 44.59 44.59 44.59 
513 1 0 3.185 3.185 
514 1 0 3.185 9.555 
515 1 0 3.185 15.925 
516 1 0 3.185 22.295 
517 1 0 3.185 28.665 
518 1 0 3.185 35.035 
519 1 0 3.185 41.405 
520 1 0 3.185 47.775 
521 1 0 9.555 3.185 
522 1 0 9.555 9.555 
523 1 0 9.555 15.925 
524 1 0 9.555 22.295 
525 1 0 9.555 28.665 
526 1 0 9.555 35.035 
527 1 0 9.555 41.405 
528 1 0 9.555 47.775 
529 1 0 15.925 3.185 
530 1 0 15.925 9.555 
531 1 0 15.925 15.925 
532 1 0 15.925 22.295 
533 1 0 15.925 28.665 
534 1 0 15.925 35.035 
535 1 0 15.925 41.405 
536 1 0 15.925 47.775 
537 1 0 22.295 3.185 
538 1 0 22.295 9.555 
539 1 0 22.295 15.925 
540 1 0 22.295 22.295 
541 1 0 22.295 28.665 
542 1 0 22.295 35.035 
543 1 0 22.295 41.405 
544 1 0 22.295 47.775 
545 1 0 28.665 3.185 
546 1 0 28.665 9.555 
547 1 0 28.665 15.925 
548 1 0 28.665 22.295 
549 1 0 28.665 28.665 
550 1 0 28.665 35.035 
551 1 0 28.665 41.405 
552 1 0 28.665 47.775 
553 1 0 35.035 3.185 
554 1 0 35.035 9.555 
555 1 0 35.035 15.925 
556 1 0 35.035 22.295 
557 1 0 35.035 28.665 
558 1 0 35.035 35.035 
559 1 0 35.035 41.405 
560 1 0 35.035 47.775 
561 1 0 41.405 3.185 
562 1 0 41.405 9.555 
563 1 0 41.405 15.925 
564 1 0 41.405 22.295 
565 1 0 41.405 28.665 
566 1 0 41.405 35.035 
567 1 0 41.405 41.405 
568 1 0 41.405 47.775 
569 1 0 47.775 3.185 
570 1 0 47.775 9.555 
571 1 0 47.775 15.925 
572 1 0 47.775 22.295 
573 1 0 47.775 28.665 
574 1 0 47.775 35.035 
575 1 0 47.775 41.405 
576 1 0 47.775 47.775 
577 1 6.37 3.185 3.185 
578 1 6.37 3.185 9.555 
579 1 6.37 3.185 15.925 
580 1 6.37 3.185 22.295 
581 1 6.37 3.185 28.665 
582 1 6.37 3.185 35.035 
583 1 6.37 3.185 41.405 
584 1 6.37 3.185 47.775 
585 1 6.37 9.555 3.185 
586 1 6.37 9.555 9.555 
587 1 6.37 9.555 15.925 
588 1 6.37 9.555 22.295 
589 1 6.37 9.555 28.665 
590 1 6.37 9.555 35.035 
591 1 6.37 9.555 41.405 
592 1 6.37 9.555 47.775 
593 1 6.37 15.925 3.185 
594 1 6.37 15.925 9.555 
595 1 6.37 15.925 15.925 
596 1 6.37 15.925 22.295 
597 1 6.37 15.925 28.665 
598 1 6.37 15.925 35.035 
599 1 6.37 15.925 41.405 
600 1 6.37 15.925 47.775 
601 1 6.37 22.295 3.185 
602 1 6.37 22.295 9.555 
603 1 6.37 22.295 15.925 
604 1 6.37 22.295 22.295 
605 1 6.37 22.295 28.665 
606 1 6.37 22.295 35.035 
607 1 6.37 22.295 41.405 
608 1 6.37 22.295 47.775 
609 1 6.37 28.665 3.185 
610 1 6.37 28.665 9.555 
611 1 6.37 28.665 15.925 
612 1 6.37 28.665 22.295 
613 1 6.37 28.665 28.665 
614 1 6.37 28.665 35.035 
615 1 6.37 28.665 41.405 
616 1 6.37 28.665 47.775 
617 1 6.37 35.035 3.185 
618 1 6.37 35.035 9.555 
619 1 6.37 35.035 15.925 
620 1 6.37 35.035 22.295 
621 1 6.37 35.035 28.665 
622 1 6.37 35.035 35.035 
623 1 6.37 35.035 41.405 
624 1 6.37 35.035 47.775 
625 1 6.37 41.405 3.185 
626 1 6.37 41.405 9.555 
627 1 6.37 41.405 15.925 
628 1 6.37 41.405 22.295 
629 1 6.37 41.405 28.665 
630 1 6.37 41.405 35.035 
631 1 6.37 41.405 41.405 
632 1 6.37 41.405 47.775 
633 1 6.37 47.775 3.185 
634 1 6.37 47.775 9.555 
635 1 6.37 47.775 15.925 
636 1 6.37 47.775 22.295 
637 1 6.37 47.775 28.665 
638 1 6.37 47.775 35.035 
639 1 6.37 47.775 41.405 
640 1 6.37 47.775 47.775 
641 1 12.74 3.185 3.185 
642 1 12.74 3.185 9.555 
643 1 12.74 3.185 15.925 
644 1 12.74 3.185 22.295 
645 1 12.74 3.185 28.665 
646 1 12.74 3.185 35.035 
647 1 12.74 3.185 41.405 
648 1 12.74 3.185 47.775 
649 1 12.74 9.555 3.185 
650 1 12.74 9.555 9.555 
651 1 12.74 9.555 15.925 
652 1 12.74 9.555 22.295 
653 1 12.74 9.555 28.665 
654 1 12.74 9.555 35.035 
655 1 12.74 9.555 41.405 
656 1 12.74 9.555 47.775 
657 1 12.74 15.925 3.185 
658 1 12.74 15.925 9.555 
659 1 12.74 15.925 15.925 
660 1 12.74 15.925 22.295 
661 1 12.74 15.925 28.665 
662 1 12.74 15.925 35.035 
663 1 12.74 15.925 41.405 
664 1 12.74 15.925 47.775 
665 1 12.74 22.295 3.185 
666 1 12.74 22.295 9.555 
667 1 12.74 22.295 15.925 
668 1 12.74 22.295 22.295 
669 1 12.74 22.295 28.665 
670 1 12.74 22.295 35.035 
671 1 12.74 22.295 41.405 
672 1 12.74 22.295 47.775 
673 1 12.74 28.665 3.185 
674 1 12.74 28.665 9.555 
675 1 12.74 28.665 15.925 
676 1 12.74 28.665 22.295 
677 1 12.74 28.665 28.665 
678 1 12.74 28.665 35.035 
679 1 12.74 28.665 41.405 
680 1 12.74 28.665 47.775 
681 1 12.74 35.035 3.185 
682 1 12.74 35.035 9.555 
683 1 12.74 35.035 15.925 
684 1 12.74 35.035 22.295 
685 1 12.74 35.035 28.665 
686 1 12.74 35.035 35.035 
687 1 12.74 35.035 41.405 
688 1 12.74 35.035 47.775 
689 1 12.74 41.405 3.185 
690 1 12.74 41.405 9.555 
691 1 12.74 41.405 15.925 
692 1 12.74 41.405 22.295 
693 1 12.74 41.405 28.665 
694 1 12.74 41.405 35.035 
695 1 12.74 41.405 41.405 
696 1 12.74 41.405 47.775 
697 1 12.74 47.775 3.185 
698 1 12.74 47.775 9.555 
699 1 12.74 47.775 15.925 
700 1 12.74 47.775 22.295 
701 1 12.74 47.775 28.665 
702 1 12.74 47.775 35.035 
703 1 12.74 47.775 41.405 
704 1 12.74 47.775 47.775 
705 1 19.11 3.185 3.185 
706 1 19.11 3.185 9.555 
707 1 19.11 3.185 15.925 
708 1 19.11 3.185 22.295 
709 1 19.11 3.185 28.665 
710 1 19.11 3.185 35.035 
711 1 19.11 3.185 41.405 
712 1 19.11 3.185 47.775 
713 1 19.11 9.555 3.185 
714 1 19.11 9.555 9.555 
715 1 19.11 9.555 15.925 
716 1 19.11 9.555 22.295 
717 1 19.11 9.555 28.665 
718 1 19.11 9.555 35.035 
719 1 19.11 9.555 41.405 
720 1 19.11 9.555 47.775 
721 1 19.11 15.925 3.185 
722 1 19.11 15.925 9.555 
723 1 19.11 15.925 15.925 
724 1 19.11 15.925 22.295 
725 1 19.11 15.925 28.665 
726 1 19.11 15.925 35.035 
727 1 19.11 15.925 41.405 
728 1 19.11 15.925 47.775 
729 1 19.11 22.295 3.185 
730 1 19.11 22.295 9.555 
731 1 19.11 22.295 15.925 
732 1 19.11 22.295 22.295 
733 1 19.11 22.295 28.665 
734 1 19.11 22.295 35.035 
735 1 19.11 22.295 41.405 
736 1 19.11 22.295 47.775 
737 1 19.11 28.665 3.185 
738 1 19.11 28.665 9.555 
739 1 19.11 28.665 15.925 
740 1 19.11 28.665 22.295 
741 1 19.11 28.665 28.665 
742 1 19.11 28.665 35.035 
743 1 19.11 28.665 41.405 
744 1 19.11 28.665 47.775 
745 1 19.11 35.035 3.185 
746 1 19.11 35.035 9.555 
747 1 19.11 35.035 15.925 
748 1 19.11 35.035 22.295 
749 1 19.11 35.035 28.665 
750 1 19.11 35.035 35.035 
751 1 19.11 35.035 41.405 
752 1 19.11 35.035 47.775 
753 1 19.11 41.405 3.185 
754 1 19.11 41.405 9.555 
755 1 19.11 41.405 15.925 
756 1 19.11 41.405 22.295 
757 1 19.11 41.405 28.665 
758 1 19.11 41.405 35.035 
759 1 19.11 41.405 41.405 
760 1 19.11 41.405 47.775 
761 1 19.11 47.775 3.185 
762 1 19.11 47.775 9.555 
763 1 19.11 47.775 15.925 
764 1 19.11 47.775 22.295 
765 1 19.11 47.775 28.665 
766 1 19.11 47.775 35.035 
767 1 19.11 47.775 41.405 
768 1 19.11 47.775 47.775 
769 1 25.48 3.185 3.185 
770 1 25.48 3.185 9.555 
771 1 25.48 3.185 15.925 
772 1 25.48 3.185 22.295 
773 1 25.48 3.185 28.665 
774 1 25.48 3.185 35.035 
775 1 25.48 3.185 41.405 
776 1 25.48 3.185 47.775 
777 1 25.48 9.555 3.185 
778 1 25.48 9.555 9.555 
779 1 25.48 9.555 15.925 
780 1 25.48 9.555 22.295 
781 1 25.48 9.555 28.665 
782 1 25.48 9.555 35.035 
783 1 25.48 9.555 41.405 
784 1 25.48 9.555 47.775 
785 1 25.48 15.925 3.185 
786 1 25.48 15.925 9.555 
787 1 25.48 15.925 15.925 
788 1 25.48 15.925 22.295 
789 1 25.48 15.925 28.665 
790 1 25.48 15.925 35.035 
791 1 25.48 15.925 41.405 
792 1 25.48 15.925 47.775 
793 1 25.48 22.295 3.185 
794 1 25.48 22.295 9.555 
795 1 25.48 22.295 15.925 
796 1 25.48 22.295 22.295 
797 1 25.48 22.295 28.665 
798 1 25.48 22.295 35.035 
799 1 25.48 22.295 41.405 
800 1 25.48 22.295 47.775 
801 1 25.48 28.665 3.185 
802 1 25.48 28.665 9.555 
803 1 25.48 28.665 15.925 
804 1 25.48 28.665 22.295 
805 1 25.48 28.665 28.665 
806 1 25.48 28.665 35.035 
807 1 25.48 28.665 41.405 
808 1 25.48 28.665 47.775 
809 1 25.48 35.035 3.185 
810 1 25.48 35.035 9.555 
811 1 25.48 35.035 15.925 
812 1 25.48 35.035 22.295 
813 1 25.48 35.035 28.665 
814 1 25.48 35.035 35.035 
815 1 25.48 35.035 41.405 
816 1 25.48 35.035 47.775 
817 1 25.48 41.405 3.185 
818 1 25.48 41.405 9.555 
819 1 25.48 41.405 15.925 
820 1 25.48 41.405 22.295 
821 1 25.48 41.405 28.665 
822 1 25.48 41.405 35.035 
823 1 25.48 41.405 41.405 
824 1 25.48 41.405 47.775 
825 1 25.48 47.775 3.185 
826 1 25.48 47.775 9.555 
827 1 25.48 47.775 15.925 
828 1 25.48 47.775 22.295 
829 1 25.48 47.775 28.665 
830 1 25.48 47.775 35.035 
831 1 25.48 47.775 41.405 
832 1 25.48 47.775 47.775 
833 1 31.85 3.185 3.185 
834 1 31.85 3.185 9.555 
835 1 31.85 3.185 15.925 
836 1 31.85 3.185 22.295 
837 1 31.85 3.185 28.665 
838 1 31.85 3.185 35.035 
839 1 31.85 3.185 41.405 
840 1 31.85 3.185 47.775 
841 1 31.85 9.555 3.185 
842 1 31.85 9.555 9.555 
843 1 31.85 9.555 15.925 
844 1 31.85 9.555 22.295 
845 1 31.85 9.555 28.665 
846 1 31.85 9.555 35.035 
847 1 31.85 9.555 41.405 
848 1 31.85 9.555 47.775 
849 1 31.85 15.925 3.185 
850 1 31.85 15.925 9.555 
851 1 31.85 15.925 15.925 
852 1 31.85 15.925 22.295 
853 1 31.85 15.925 28.665 
854 1 31.85 15.925 35.035 
855 1 31.85 15.925 41.405 
856 1 31.85 15.925 47.775 
857 1 31.85 22.295 3.185 
858 1 31.85 22.295 9.555 
859 1 31.85 22.295 15.925 
860 1 31.85 22.295 22.295 
861 1 31.85 22.295 28.665 
862 1 31.85 22.295 35.035 
863 1 31.85 22.295 41.405 
864 1 31.85 22.295 47.775 
865 1 31.85 28.665 3.185 
866 1 31.85 28.665 9.555 
867 1 31.85 28.665 15.925 
868 1 31.85 28.665 22.295 
869 1 31.85 28.665 28.665 
870 1 31.85 28.665 35.035 
871 1 31.85 28.665 41.405 
872 1 31.85 28.665 47.775 
873 1 31.85 35.035 3.185 
874 1 31.85 35.035 9.555 
875 1 31.85 35.035 15.925 
876 1 31.85 35.035 22.295 
877 1 31.85 35.035 28.665 
878 1 31.85 35.035 35.035 
879 1 31.85 35.035 41.405 
880 1 31.85 35.035 47.775 
881 1 31.85 41.405 3.185 
882 1 31.85 41.405 9.555 
883 1 31.85 41.405 15.925 
884 1 31.85 41.405 22.295 
885 1 31.85 41.405 28.665 
886 1 31.85 41.405 35.035 
887 1 31.85 41.405 41.405 
888 1 31.85 41.405 47.775 
889 1 31.85 47.775 3.185 
890 1 31.85 47.775 9.555 
891 1 31.85 47.775 15.925 
892 1 31.85 47.775 22.295 
893 1 31.85 47.775 28.665 
894 1 31.85 47.775 35.035 
895 1 31.85 47.775 41.405 
896 1 31.85 47.775 47.775 
897 1 38.22 3.185 3.185 
898 1 38.22 3.185 9.555 
899 1 38.22 3.185 15.925 
900 1 38.22 3.185 22.295 
901 1 38.22 3.185 28.665 
902 1 38.22 3.185 35.035 
903 1 38.22 3.185 41.405 
904 1 38.22 3.185 47.775 
905 1 38.22 9.555 3.185 
906 1 38.22 9.555 9.555 
907 1 38.22 9.555 15.925 
908 1 38.22 9.555 22.295 
909 1 38.22 9.555 28.665 
910 1 38.22 9.555 35.035 
911 1 38.22 9.555 41.405 
912 1 38.22 9.555 47.775 
913 1 38.22 15.925 3.185 
914 1 38.22 15.925 9.555 
915 1 38.22 15.925 15.925 
916 1 38.22 15.925 22.295 
917 1 38.22 15.925 28.665 
918 1 38.22 15.925 35.035 
919 1 38.22 15.925 41.405 
920 1 38.22 15.925 47.775 
921 1 38.22 22.295 3.185 
922 1 38.22 22.295 9.555 
923 1 38.22 22.295 15.925 
924 1 38.22 22.295 22.295 
925 1 38.22 22.295 28.665 
926 1 38.22 22.295 35.035 
927 1 38.22 22.295 41.405 
928 1 38.22 22.295 47.775 
929 1 38.22 28.665 3.185 
930 1 38.22 28.665 9.555 
931 1 38.22 28.665 15.925 
932 1 38.22 28.665 22.295 
933 1 38.22 28.665 28.665 
934 1 38.22 28.665 35.035 
935 1 38.22 28.665 41.405 
936 1 38.22 28.665 47.775 
937 1 38.22 35.035 3.185 
938 1 38.22 35.035 9.555 
939 1 38.22 35.035 15.925 
940 1 38.22 35.035 22.295 
941 1 38.22 35.035 28.665 
942 1 38.22 35.035 35.035 
943 1 38.22 35.035 41.405 
944 1 38.22 35.035 47.775 
945 1 38.22 41.405 3.185 
946 1 38.22 41.405 9.555 
947 1 38.22 41.405 15.925 
948 1 38.22 41.405 22.295 
949 1 38.22 41.405 28.665 
950 1 38.22 41.405 35.035 
951 1 38.22 41.405 41.405 
952 1 38.22 41.405 47.775 
953 1 38.22 47.775 3.185 
954 1 38.22 47.775 9.555 
955 1 38.22 47.775 15.925 
956 1 38.22 47.775 22.295 
957 1 38.22 47.775 28.665 
958 1 38.22 47.775 35.035 
959 1 38.22 47.775 41.405 
960 1 38.22 47.775 47.775 
961 1 44.59 3.185 3.185 
962 1 44.59 3.185 9.555 
963 1 44.59 3.185 15.925 
964 1 44.59 3.185 22.295 
965 1 44.59 3.185 28.665 
966 1 44.59 3.185 35.035 
967 1 44.59 3.185 41.405 
968 1 44.59 3.185 47.775 
969 1 44.59 9.555 3.185 
970 1 44.59 9.555 9.555 
971 1 44.59 9.555 15.925 
972 1 44.59 9.555 22.295 
973 1 44.59 9.555 28.665 
974 1 44.59 9.555 35.035 
975 1 44.59 9.555 41.405 
976 1 44.59 9.555 47.775 
977 1 44.59 15.925 3.185 
978 1 44.59 15.925 9.555 
979 1 44.59 15.925 15.925 
980 1 44.59 15.925 22.295 
981 1 44.59 15.925 28.665 
982 1 44.59 15.925 35.035 
983 1 44.59 15.925 41.405 
984 1 44.59 15.925 47.775 
985 1 44.59 22.295 3.185 
986 1 44.59 22.295 9.555 
987 1 44.59 22.295 15.925 
988 1 44.59 22.295 22.295 
989 1 44.59 22.295 28.665 
990 1 44.59 22.295 35.035 
991 1 44.59 22.295 41.405 
992 1 44.59 22.295 47.775 
993 1 44.59 28.665 3.185 
994 1 44.59 28.665 9.555 
995 1 44.59 28.665 15.925 
996 1 44.59 28.665 22.295 
997 1 44.59 28.665 28.665 
998 1 44.59 28.665 35.035 
999 1 44.59 28.665 41.405 
1000 1 44.59 28.665 47.775 
1001 1 44.59 35.035 3.185 
1002 1 44.59 35.035 9.555 
1003 1 44.59 35.035 15.925 
1004 1 44.59 35.035 22.295 
1005 1 44.59 35.035 28.665 
1006 1 44.59 35.035 35.035 
1007 1 44.59 35.035 41.405 
1008 1 44.59 35.035 47.775 
1009 1 44.59 41.405 3.185 
1010 1 44.59 41.405 9.555 
1011 1 44.59 41.405 15.925 
1012 1 44.59 41.405 22.295 
1013 1 44.59 41.405 28.665 
1014 1 44.59 41.405 35.035 
1015 1 44.59 41.405 41.405 
1016 1 44.59 41.405 47.775 
1017 1 44.59 47.775 3.185 
1018 1 44.59 47.775 9.555 
1019 1 44.59 47.775 15.925 
1020 1 44.59 47.775 22.295 
1021 1 44.59 47.775 28.665 
1022 1 44.59 47.775 35.035 
1023 1 44.59 47.775 41.405 
1024 1 44.59 47.775 47.775 
1025 1 3.185 3.185 0 
1026 1 3.185 3.185 6.37 
1027 1 3.185 3.185 12.74 
1028 1 3.185 3.185 19.11 
1029 1 3.185 3.185 25.48 
1030 1 3.185 3.185 31.85 
1031 1 3.185 3.185 38.22 
1032 1 3.185 3.185 44.59 
1033 1 3.185 9.555 0 
1034 1 3.185 9.555 6.37 
1035 1 3.185 9.555 12.74 
1036 1 3.185 9.555 19.11 
1037 1 3.185 9.555 25.48 
1038 1 3.185 9.555 31.85 
1039 1 3.185 9.555 38.22 
1040 1 3.185 9.555 44.59 
1041 1 3.185 15.925 0 
1042 1 3.185 15.925 6.37 
1043 1 3.185 15.925 12.74 
1044 1 3.185 15.925 19.11 
1045 1 3.185 15.925 25.48 
1046 1 3.185 15.925 31.85 
1047 1 3.185 15.925 38.22 
1048 1 3.185 15.925 44.59 
1049 1 3.185 22.295 0 
1050 1 3.185 22.295 6.37 
1051 1 3.185 22.295 12.74 
1052 1 3.185 22.295 19.11 
1053 1 3.185 22.295 25.48 
1054 1 3.185 22.295 31.85 
1055 1 3.185 22.295 38.22 
1056 1 3.185 22.295 44.59 
1057 1 3.185 28.665 0 
1058 1 3.185 28.665 6.37 
1059 1 3.185 28.665 12.74 
1060 1 3.185 28.665 19.11 
1061 1 3.185 28.665 25.48 
1062 1 3.185 28.665 31.85 
1063 1 3.185 28.665 38.22 
1064 1 3.185 28.665 44.59 
1065 1 3.185 35.035 0 
1066 1 3.185 35.035 6.37 
1067 1 3.185 35.035 12.74 
1068 1 3.185 35.035 19.11 
1069 1 3.185 35.035 25.48 
1070 1 3.185 35.035 31.85 
1071 1 3.185 35.035 38.22 
1072 1 3.185 35.035 44.59 
1073 1 3.185 41.405 0 
1074 1 3.185 41.405 6.37 
1075 1 3.185 41.405 12.74 
1076 1 3.185 41.405 19.11 
1077 1 3.185 41.405 25.48 
1078 1 3.185 41.405 31.85 
1079 1 3.185 41.405 38.22 
1080 1 3.185 41.405 44.59 
1081 1 3.185 47.775 0 
1082 1 3.185 47.775 6.37 
1083 1 3.185 47.775 12.74 
1084 1 3.185 47.775 19.11 
1085 1 3.185 47.775 25.48 
1086 1 3.185 47.775 31.85 
1087 1 3.185 47.775 38.22 
1088 1 3.185 47.775 44.59 
1089 1 9.555 3.185 0 
1090 1 9.555 3.185 6.37 
1091 1 9.555 3.185 12.74 
1092 1 9.555 3.185 19.11 
1093 1 9.555 3.185 25.48 
1094 1 9.555 3.185 31.85 
1095 1 9.555 3.185 38.22 
1096 1 9.555 3.185 44.59 
1097 1 9.555 9.555 0 
1098 1 9.555 9.555 6.37 
1099 1 9.555 9.555 12.74 
1100 1 9.555 9.555 19.11 
1101 1 9.555 9.555 25.48 
1102 1 9.555 9.555 31.85 
1103 1 9.555 9.555 38.22 
1104 1 9.555 9.555 44.59 
1105 1 9.555 15.925 0 
1106 1 9.555 15.925 6.37 
1107 1 9.555 15.925 12.74 
1108 1 9.555 15.925 19.11 
1109 1 9.555 15.925 25.48 
1110 1 9.555 15.925 31.85 
1111 1 9.555 15.925 38.22 
1112 1 9.555 15.925 44.59 
1113 1 9.555 22.295 0 
1114 1 9.555 22.295 6.37 
1115 1 9.555 22.295 12.74 
1116 1 9.555 22.295 19.11 
1117 1 9.555 22.295 25.48 
1118 1 9.555 22.295 31.85 
1119 1 9.555 22.295 38.22 
1120 1 9.555 22.295 44.59 
1121 1 9.555 28.665 0 
1122 1 9.555 28.665 6.37 
1123 1 9.555 28.665 12.74 
1124 1 9.555 28.665 19.11 
1125 1 9.555 28.665 25.48 
1126 1 9.555 28.665 31.85 
1127 1 9.555 28.665 38.22 
1128 1 9.555 28.665 44.59 
1129 1 9.555 35.035 0 
1130 1 9.555 35.035 6.37 
1131 1 9.555 35.035 12.74 
1132 1 9.555 35.035 19.11 
1133 1 9.555 35.035 25.48 
1134 1 9.555 35.035 31.85 
1135 1 9.555 35.035 38.22 
1136 1 9.555 35.035 44.59 
1137 1 9.555 41.405 0 
1138 1 9.555 41.405 6.37 
1139 1 9.555 41.405 12.74 
1140 1 9.555 41.405 19.11 
1141 1 9.555 41.405 25.48 
1142 1 9.555 41.405 31.85 
1143 1 9.555 41.405 38.22 
1144 1 9.555 41.405 44.59 
1145 1 9.555 47.775 0 
1146 1 9.555 47.775 6.37 
1147 1 9.555 47.775 12.74 
1148 1 9.555 47.775 19.11 
1149 1 9.555 47.775 25.48 
1150 1 9.555 47.775 31.85 
1151 1 9.555 47.775 38.22 
1152 1 9.555 47.775 44.59 
1153 1 15.925 3.185 0 
1154 1 15.925 3.185 6.37 
1155 1 15.925 3.185 12.74 
1156 1 15.925 3.185 19.11 
1157 1 15.925 3.185 25.48 
1158 1 15.925 3.185 31.85 
1159 1 15.925 3.185 38.22 
1160 1 15.925 3.185 44.59 
1161 1 15.925 9.555 0 
1162 1 15.925 9.555 6.37 
1163 1 15.925 9.555 12.74 
1164 1 15.925 9.555 19.11 
1165 1 15.925 9.555 25.48 
1166 1 15.925 9.555 31.85 
1167 1 15.925 9.555 38.22 
1168 1 15.925 9.555 44.59 
1169 1 15.925 15.925 0 
1170 1 15.925 15.925 6.37 
1171 1 15.925 15.925 12.74 
1172 1 15.925 15.925 19.11 
1173 1 15.925 15.925 25.48 
1174 1 15.925 15.925 31.85 
1175 1 15.925 15.925 38.22 
1176 1 15.925 15.925 44.59 
1177 1 15.925 22.295 0 
1178 1 15.925 22.295 6.37 
1179 1 15.925 22.295 12.74 
1180 1 15.925 22.295 19.11 
1181 1 15.925 22.295 25.48 
1182 1 15.925 22.295 31.85 
1183 1 15.925 22.295 38.22 
1184 1 15.925 22.295 44.59 
1185 1 15.925 28.665 0 
1186 1 15.925 28.665 6.37 
1187 1 15.925 28.665 12.74 
1188 1 15.925 28.665 19.11 
1189 1 15.925 28.665 25.48 
1190 1 15.925 28.665 31.85 
1191 1 15.925 28.665 38.22 
1192 1 15.925 28.665 44.59 
1193 1 15.925 35.035 0 
1194 1 15.925 35.035 6.37 
1195 1 15.925 35.035 12.74 
1196 1 15.925 35.035 19.11 
1197 1 15.925 35.035 25.48 
1198 1 15.925 35.035 31.85 
1199 1 15.925 35.035 38.22 
1200 1 15.925 35.035 44.59 
1201 1 15.925 41.405 0 
1202 1 15.925 41.405 6.37 
1203 1 15.925 41.405 12.74 
1204 1 15.925 41.405 19.11 