ITEM: TIMESTEP
0
ITEM: NUMBER OF ATOMS
50
ITEM: BOX BOUNDS pp pp pp
0.0 69.456
0.0 34.728
0.0 34.728
ITEM: ATOMS id mol type x y z
1 1 4 10.0534232224 9.1533690746 8.8731646026
2 1 5 9.4525327019 8.0377586994 9.5462131326
3 1 3 8.0978146791 7.8078317752 8.8933171546
4 1 3 7.759060243 9.1409967949 8.269771932
5 1 5 9.1142978783 9.7660585237 7.9780202155
41 9 1 5.8629656713 5.9758158563 6.0233160444
42 9 2 5.7288366508 6.8906353356 5.7700787798
43 9 2 6.7790202557 5.797619565 5.8038839448
44 10 1 5.257169149 5.3872416916 8.6870455293
45 10 2 5.4728157548 5.5821174786 7.7734862446
46 10 2 6.0625871553 5.0147680451 9.0497234851
56 14 1 4.1879238207 7.7777211635 9.6984569456
57 14 2 4.5681666063 6.9557280731 9.3842070495
58 14 2 3.2913151551 7.5476742625 9.9480009248
59 15 1 4.1487233977 9.6857331892 7.6175500346
60 15 2 4.1779095766 9.0473735248 8.3321186397
61 15 2 4.5646131825 10.4701689253 7.9791054053
62 16 1 5.3474976225 8.6304506249 5.2988053265
63 16 2 4.941571859 9.0250196316 6.0724260525
64 16 2 4.6571526817 8.6407488412 4.6336876146
6204 1994 1 31.9250924829 32.0168559597 23.2883564012
6205 1994 2 32.8476891832 31.7947909941 23.1522873876
6206 1994 2 31.7485488432 31.7640730648 24.1962213651
6207 1995 1 34.5953345844 31.370147044 22.8130677554
6208 1995 2 34.9804763248 32.1649241096 22.4402084539
6209 1995 2 34.6401773668 30.7261997152 22.1043368827
6231 2003 1 32.0289012764 28.8132215103 20.1317903559
6232 2003 2 31.7990370119 27.8946480362 20.2815591082
6233 2003 2 31.7876462409 28.9753549705 19.2182568106
6237 2005 1 34.6659341154 29.4387639538 20.7664785627
6238 2005 2 33.758481969 29.2253418 20.5427249153
6239 2005 2 35.0408531971 29.7774462228 19.9518127391
6264 2014 1 30.3498576074 30.3978937439 21.6759825205
6265 2014 2 30.9117427588 30.9402457737 22.2321313545
6266 2014 2 30.960864277 29.8673328788 21.161943643
6764 2170 1 57.349169149 22.7512416916 26.0510455293
6765 2170 2 57.5648157548 22.9461174786 25.1374862446
6766 2170 2 58.1545871553 22.3787680451 26.4137234851
6776 2174 1 56.2799238207 25.1417211635 27.0624569456
6777 2174 2 56.6601666063 24.3197280731 26.7482070495
6778 2174 2 55.3833151551 24.9116742625 27.3120009248
6929 2225 1 55.3620222178 20.7786852027 26.0536963674
6930 2225 2 56.0540212067 21.4420314524 26.0482716882
6931 2225 2 55.1992778948 20.5937735071 25.1272220696
6932 2226 1 53.6682433267 24.5226707068 27.8278834451
6933 2226 2 53.458894602 23.6136689791 27.6066455629
6934 2226 2 53.1109874895 25.0452812679 27.2485970583
6938 2228 1 53.0449091279 21.8860770908 27.1505623616
6939 2228 2 53.8297532663 21.4729675734 26.7865707093
6940 2228 2 52.4034306043 21.8517544362 26.4389667711
