ITEM: TIMESTEP
0
ITEM: NUMBER OF ATOMS
84
ITEM: BOX BOUNDS pp pp pp
0.0 17.364
0.0 17.364
0.0 17.364
ITEM: ATOMS id mol type x y z
41 9 1 5.8629656713 5.9758158563 6.0233160444
42 9 2 5.7288366508 6.8906353356 5.7700787798
43 9 2 6.7790202557 5.797619565 5.8038839448
44 10 1 5.257169149 5.3872416916 8.6870455293
45 10 2 5.4728157548 5.5821174786 7.7734862446
46 10 2 6.0625871553 5.0147680451 9.0497234851
47 11 1 7.6322433189 4.2346238407 9.6457430081
48 11 2 7.9605644106 4.6375829688 10.451310293
49 11 2 7.446264158 3.3264160562 9.8900455361
50 12 1 9.6569339918 4.2117487254 7.6933335238
51 12 2 8.9583828171 4.2287795738 8.3496455302
52 12 2 9.2696576919 4.6244215097 6.9196018473
53 13 1 8.5069926597 5.3339478234 5.3825971533
54 13 2 8.526576967 4.6747666134 4.6868375309
55 13 2 8.9273320461 6.1038736125 4.9959167562
56 14 1 4.1879238207 7.7777211635 9.6984569456
57 14 2 4.5681666063 6.9557280731 9.3842070495
58 14 2 3.2913151551 7.5476742625 9.9480009248
59 15 1 4.1487233977 9.6857331892 7.6175500346
60 15 2 4.1779095766 9.0473735248 8.3321186397
61 15 2 4.5646131825 10.4701689253 7.9791054053
62 16 1 5.3474976225 8.6304506249 5.2988053265
63 16 2 4.941571859 9.0250196316 6.0724260525
64 16 2 4.6571526817 8.6407488412 4.6336876146
65 17 1 7.7286822238 9.6872621625 4.2516259922
66 17 2 6.9105450316 9.3591979436 4.6283885622
67 17 2 7.5068554657 9.8991374964 3.3433410053
68 18 1 9.6298300493 7.61890709 4.2091686876
69 18 2 8.9967266709 8.3381984665 4.2376650173
70 18 2 10.4252031892 7.9833258673 4.6011622172
71 19 1 11.3783470319 11.3590347418 5.8174538112
72 19 2 11.6028733585 11.5400551322 6.7318477966
73 19 2 11.9433429479 11.9449544343 5.3108952816
74 20 1 12.0238734669 11.9343437037 8.4516453084
75 20 2 11.218161962 12.190176207 8.9035219313
76 20 2 12.2916102491 11.1198541673 8.880571872
77 21 1 9.6776045977 12.9637103662 9.6442399292
78 21 2 8.9894681271 13.020442396 8.9793326586
79 21 2 9.8956388379 13.8759497581 9.8427085958
80 22 1 7.6338350331 13.1116573775 7.6892320116
81 22 2 7.9552559602 12.7612079126 6.8568140464
82 22 2 7.4220759977 14.0270181641 7.4986374022
83 23 1 8.7397208568 12.0850391694 5.3331503037
84 23 2 9.6555421673 11.8459106321 5.4851744615
85 23 2 8.3434025094 11.294634404 4.9630653366
86 24 1 13.1189053758 9.6036932881 9.6001962219
87 24 2 12.6385557105 9.2381930855 10.3447522831
88 24 2 12.9969684861 8.9628495495 8.8978472392
89 25 1 13.0555081092 7.6472018619 7.5755747819
90 25 2 13.9852754216 7.4404262304 7.4671419735
91 25 2 12.6773396521 6.8566522964 7.96398669
92 26 1 11.994899432 8.7153262656 5.2299192572
93 26 2 11.7780492097 9.6236364937 5.4470742314
94 26 2 12.3102068251 8.3401440478 6.0538952729
95 27 1 5.9836408556 11.3526562991 11.3443477392
96 27 2 5.7803341446 10.4479718928 11.5876962106
97 27 2 5.4332605512 11.8858548582 11.9205011272
98 28 1 5.2733897775 12.0055619937 8.720098333
99 28 2 6.0729731977 12.3592620017 8.3269082061
100 28 2 5.5252477885 11.7835597475 9.618076157
101 29 1 8.61928972 11.9545814761 12.0273021347
102 29 2 9.0110027481 12.2683915709 11.2105033559
103 29 2 7.714639037 11.740586957 11.7930662848
104 30 1 5.3875613207 8.7171461373 12.0425269542
105 30 2 4.6785287354 8.7655609003 12.6859228208
106 30 2 4.9727546411 8.3630735621 11.2541057421
107 31 1 7.773368185 7.7251635375 13.151513935
108 31 2 8.0195522317 6.9080344574 12.7146418211
109 31 2 6.9633137736 7.9957573116 12.7161622996
110 32 1 9.790551412 9.6536809541 13.1118134976
111 32 2 9.0892662296 8.999990428 13.1090346691
112 32 2 9.4033155345 10.4231532069 12.6911160256
113 33 1 11.4042876047 5.8271266007 11.3668569684
114 33 2 11.6347132834 6.7361646425 11.5661457857
115 33 2 11.9746166546 5.3050017066 11.9336795931
116 34 1 12.0466451732 5.2802290624 8.7082803336
117 34 2 11.8336892115 5.4717007991 9.6231987875
118 34 2 11.2301470848 4.9414273354 8.3375147729
119 35 1 8.7045444483 5.3799989356 11.9513600459
120 35 2 9.6424059585 5.4954239669 11.7899458157
121 35 2 8.6586074047 4.696943907 12.6225402913
122 36 1 12.04369007 8.4656667618 11.9611383524
123 36 2 11.2757847787 8.8990354013 12.3372541637
124 36 2 12.699763514 8.4906548841 12.6596172527
