ITEM: TIMESTEP
0
ITEM: NUMBER OF ATOMS
28
ITEM: BOX BOUNDS pp pp pp
0.0 17.364
0.0 17.364
0.0 17.364
ITEM: ATOMS id mol type x y z
41 9 1 5.8629656713 5.9758158563 6.0233160444
44 10 1 5.257169149 5.3872416916 8.6870455293
47 11 1 7.6322433189 4.2346238407 9.6457430081
50 12 1 9.6569339918 4.2117487254 7.6933335238
53 13 1 8.5069926597 5.3339478234 5.3825971533
56 14 1 4.1879238207 7.7777211635 9.6984569456
59 15 1 4.1487233977 9.6857331892 7.6175500346
62 16 1 5.3474976225 8.6304506249 5.2988053265
65 17 1 7.7286822238 9.6872621625 4.2516259922
68 18 1 9.6298300493 7.61890709 4.2091686876
71 19 1 11.3783470319 11.3590347418 5.8174538112
74 20 1 12.0238734669 11.9343437037 8.4516453084
77 21 1 9.6776045977 12.9637103662 9.6442399292
80 22 1 7.6338350331 13.1116573775 7.6892320116
83 23 1 8.7397208568 12.0850391694 5.3331503037
86 24 1 13.1189053758 9.6036932881 9.6001962219
89 25 1 13.0555081092 7.6472018619 7.5755747819
92 26 1 11.994899432 8.7153262656 5.2299192572
95 27 1 5.9836408556 11.3526562991 11.3443477392
98 28 1 5.2733897775 12.0055619937 8.720098333
101 29 1 8.61928972 11.9545814761 12.0273021347
104 30 1 5.3875613207 8.7171461373 12.0425269542
107 31 1 7.773368185 7.7251635375 13.151513935
110 32 1 9.790551412 9.6536809541 13.1118134976
113 33 1 11.4042876047 5.8271266007 11.3668569684
116 34 1 12.0466451732 5.2802290624 8.7082803336
119 35 1 8.7045444483 5.3799989356 11.9513600459
122 36 1 12.04369007 8.4656667618 11.9611383524
